   70   70    1    1
  0.2230945E+02  0.1053953E-08  0.6141200E-09  0.2412750E-08  0.5000000E-15
   1.0000000000000000E-004
  CAR 
 Name                                    
    265     23    168

  0.3742002E-15  0.3742002E-15  0.1262379E-14  0.2222222E-01
    1      -13.942930   1.000000
    2      -12.855368   1.000000
    3      -12.664678   1.000000
    4      -12.506833   1.000000
    5      -11.948185   1.000000
    6      -11.694406   1.000000
    7      -11.650011   1.000000
    8      -11.389107   1.000000
    9      -11.374565   1.000000
   10      -11.261387   1.000000
   11      -11.066452   1.000000
   12      -10.985898   1.000000
   13      -10.747153   1.000000
   14      -10.397087   1.000000
   15      -10.215540   1.000000
   16      -10.144805   1.000000
   17      -10.086784   1.000000
   18       -9.978376   1.000000
   19       -9.775023   1.000000
   20       -9.750912   1.000000
   21       -9.523910   1.000000
   22       -9.504853   1.000000
   23       -9.294776   1.000000
   24       -9.226349   1.000000
   25       -8.963662   1.000000
   26       -8.836008   1.000000
   27       -8.483094   1.000000
   28       -8.280214   1.000000
   29       -8.191359   1.000000
   30       -8.174728   1.000000
   31       -7.987945   1.000000
   32       -7.904243   1.000000
   33       -7.619927   1.000000
   34       -7.358571   1.000000
   35       -7.163275   1.000000
   36       -7.097462   1.000000
   37       -7.029742   1.000000
   38       -6.837550   1.000000
   39       -6.756440   1.000000
   40       -6.689820   1.000000
   41       -6.627933   1.000000
   42       -6.557305   1.000000
   43       -6.476453   1.000000
   44       -6.304741   1.000000
   45       -6.246708   1.000000
   46       -6.167420   1.000000
   47       -6.152523   1.000000
   48       -6.044766   1.000000
   49       -5.952229   1.000000
   50       -5.858524   1.000000
   51       -5.747070   1.000000
   52       -5.598586   1.000000
   53       -5.570022   1.000000
   54       -5.553312   1.000000
   55       -5.404886   1.000000
   56       -5.324383   1.000000
   57       -5.225315   1.000000
   58       -5.189686   1.000000
   59       -5.137953   1.000000
   60       -5.116029   1.000000
   61       -4.996967   1.000000
   62       -4.868476   1.000000
   63       -4.794842   1.000000
   64       -4.700269   1.000000
   65       -4.624567   1.000000
   66       -4.617399   1.000000
   67       -4.479292   1.000000
   68       -4.455910   1.000000
   69       -4.423631   1.000000
   70       -4.283728   1.000000
   71       -4.220408   1.000000
   72       -4.158882   1.000000
   73       -4.124996   1.000000
   74       -4.025866   1.000000
   75       -4.007654   1.000000
   76       -3.988430   1.000000
   77       -3.924867   1.000000
   78       -3.848191   1.000000
   79       -3.809653   1.000000
   80       -3.686520   1.000000
   81       -3.672261   1.000000
   82       -3.622759   1.000000
   83       -3.563886   1.000000
   84       -3.497455   1.000000
   85       -3.390293   1.000000
   86       -3.385499   1.000000
   87       -3.336548   1.000000
   88       -3.227341   1.000000
   89       -3.148687   1.000000
   90       -3.070145   1.000000
   91       -3.016688   1.000000
   92       -2.930686   1.000000
   93       -2.877487   1.000000
   94       -2.849672   1.000000
   95       -2.684272   1.000000
   96       -2.586770   1.000000
   97       -2.566105   1.000000
   98       -2.498909   1.000000
   99       -2.472760   1.000000
  100       -2.378681   1.000000
  101       -2.339925   1.000000
  102       -2.326039   1.000000
  103       -2.313075   1.000000
  104       -2.273184   1.000000
  105       -2.200224   1.000000
  106       -2.176864   1.000000
  107       -2.148255   1.000000
  108       -2.081421   1.000000
  109       -1.949489   1.000000
  110       -1.887924   1.000000
  111       -1.877953   1.000000
  112       -1.795171   1.000000
  113       -1.723449   1.000000
  114       -1.608157   1.000000
  115       -1.558428   1.000000
  116       -1.488441   1.000000
  117       -1.385942   1.000000
  118       -1.233252   1.000000
  119       -1.163041   1.000000
  120       -1.160839   1.000000
  121       -1.040317   1.000000
  122       -0.916016   1.000000
  123       -0.800764   1.000000
  124       -0.639638   1.000002
  125       -0.570131   1.000019
  126       -0.470058   1.000322
  127       -0.437706   1.000712
  128       -0.325164   1.006932
  129       -0.189757   1.032930
  130       -0.146726   1.034537
  131       -0.018644   0.875940
  132        0.040077   0.679040
  133        0.088493   0.478899
  134        0.150892   0.232012
  135        0.180716   0.137656
  136        0.245893   0.006959
  137        0.259433  -0.007711
  138        0.363369  -0.031797
  139        0.377646  -0.028936
  140        0.574555  -0.001411
  141        0.624802  -0.000438
  142        0.658138  -0.000186
  143        0.724974  -0.000028
  144        0.731546  -0.000023
  145        0.865602  -0.000000
  146        0.950552  -0.000000
  147        0.976152  -0.000000
  148        1.003561  -0.000000
  149        1.051248  -0.000000
  150        1.103217  -0.000000
  151        1.140682  -0.000000
  152        1.184392  -0.000000
  153        1.226293  -0.000000
  154        1.237734  -0.000000
  155        1.271909  -0.000000
  156        1.373999  -0.000000
  157        1.390550  -0.000000
  158        1.421874  -0.000000
  159        1.449216  -0.000000
  160        1.493963  -0.000000
  161        1.528142  -0.000000
  162        1.629871  -0.000000
  163        1.652889  -0.000000
  164        1.718976  -0.000000
  165        1.834360  -0.000000
  166        1.947486  -0.000000
  167        2.135072  -0.000000
  168        2.692771  -0.000000

  0.2000000E+00  0.3742002E-15  0.1262379E-14  0.4444444E-01
    1      -13.916398   1.000000
    2      -12.999398   1.000000
    3      -12.747962   1.000000
    4      -12.192628   1.000000
    5      -11.998449   1.000000
    6      -11.946398   1.000000
    7      -11.431758   1.000000
    8      -11.377173   1.000000
    9      -11.241801   1.000000
   10      -11.200756   1.000000
   11      -11.031836   1.000000
   12      -10.985342   1.000000
   13      -10.723895   1.000000
   14      -10.534631   1.000000
   15      -10.444411   1.000000
   16      -10.221039   1.000000
   17      -10.176207   1.000000
   18      -10.001718   1.000000
   19       -9.781133   1.000000
   20       -9.708064   1.000000
   21       -9.533855   1.000000
   22       -9.514780   1.000000
   23       -9.280108   1.000000
   24       -9.202555   1.000000
   25       -8.933232   1.000000
   26       -8.679958   1.000000
   27       -8.395020   1.000000
   28       -8.205926   1.000000
   29       -8.141688   1.000000
   30       -8.073863   1.000000
   31       -7.998938   1.000000
   32       -7.933283   1.000000
   33       -7.536081   1.000000
   34       -7.414429   1.000000
   35       -7.283812   1.000000
   36       -7.150146   1.000000
   37       -7.050470   1.000000
   38       -6.906025   1.000000
   39       -6.825985   1.000000
   40       -6.751342   1.000000
   41       -6.651373   1.000000
   42       -6.616893   1.000000
   43       -6.504155   1.000000
   44       -6.424243   1.000000
   45       -6.284821   1.000000
   46       -6.223717   1.000000
   47       -5.989730   1.000000
   48       -5.936068   1.000000
   49       -5.909490   1.000000
   50       -5.868318   1.000000
   51       -5.792228   1.000000
   52       -5.578857   1.000000
   53       -5.503304   1.000000
   54       -5.479276   1.000000
   55       -5.428732   1.000000
   56       -5.302596   1.000000
   57       -5.263031   1.000000
   58       -5.176797   1.000000
   59       -5.097334   1.000000
   60       -4.988882   1.000000
   61       -4.978315   1.000000
   62       -4.939022   1.000000
   63       -4.783037   1.000000
   64       -4.691795   1.000000
   65       -4.651802   1.000000
   66       -4.547454   1.000000
   67       -4.463162   1.000000
   68       -4.439905   1.000000
   69       -4.409311   1.000000
   70       -4.271719   1.000000
   71       -4.176737   1.000000
   72       -4.149925   1.000000
   73       -4.135384   1.000000
   74       -4.060327   1.000000
   75       -4.010524   1.000000
   76       -4.007319   1.000000
   77       -3.945297   1.000000
   78       -3.858079   1.000000
   79       -3.843432   1.000000
   80       -3.757722   1.000000
   81       -3.721586   1.000000
   82       -3.650751   1.000000
   83       -3.554448   1.000000
   84       -3.499865   1.000000
   85       -3.465292   1.000000
   86       -3.342990   1.000000
   87       -3.316072   1.000000
   88       -3.227422   1.000000
   89       -3.143541   1.000000
   90       -3.114201   1.000000
   91       -3.008069   1.000000
   92       -2.914911   1.000000
   93       -2.864720   1.000000
   94       -2.837990   1.000000
   95       -2.719871   1.000000
   96       -2.655575   1.000000
   97       -2.592624   1.000000
   98       -2.534550   1.000000
   99       -2.460863   1.000000
  100       -2.449817   1.000000
  101       -2.375718   1.000000
  102       -2.342728   1.000000
  103       -2.288777   1.000000
  104       -2.223511   1.000000
  105       -2.154811   1.000000
  106       -2.115982   1.000000
  107       -2.077134   1.000000
  108       -1.995913   1.000000
  109       -1.933660   1.000000
  110       -1.871011   1.000000
  111       -1.803893   1.000000
  112       -1.727398   1.000000
  113       -1.703750   1.000000
  114       -1.585005   1.000000
  115       -1.542680   1.000000
  116       -1.462229   1.000000
  117       -1.364447   1.000000
  118       -1.230182   1.000000
  119       -1.165936   1.000000
  120       -1.148607   1.000000
  121       -1.112571   1.000000
  122       -0.925667   1.000000
  123       -0.873286   1.000000
  124       -0.678058   1.000001
  125       -0.633813   1.000002
  126       -0.540460   1.000047
  127       -0.505919   1.000125
  128       -0.421533   1.001034
  129       -0.232291   1.024039
  130       -0.181196   1.034149
  131       -0.056521   0.959918
  132       -0.032811   0.911575
  133        0.108923   0.393404
  134        0.115462   0.366671
  135        0.153149   0.224182
  136        0.235520   0.020883
  137        0.319358  -0.035119
  138        0.402024  -0.023408
  139        0.470861  -0.009753
  140        0.549863  -0.002375
  141        0.620444  -0.000488
  142        0.644795  -0.000264
  143        0.718332  -0.000034
  144        0.803931  -0.000002
  145        0.911860  -0.000000
  146        0.923908  -0.000000
  147        0.987040  -0.000000
  148        1.023700  -0.000000
  149        1.041473  -0.000000
  150        1.129051  -0.000000
  151        1.187154  -0.000000
  152        1.216337  -0.000000
  153        1.232086  -0.000000
  154        1.311866  -0.000000
  155        1.367188  -0.000000
  156        1.391558  -0.000000
  157        1.407971  -0.000000
  158        1.448504  -0.000000
  159        1.509490  -0.000000
  160        1.541440  -0.000000
  161        1.553449  -0.000000
  162        1.587234  -0.000000
  163        1.657967  -0.000000
  164        1.711081  -0.000000
  165        1.930522  -0.000000
  166        1.994957  -0.000000
  167        2.102992  -0.000000
  168        2.375508  -0.000000

  0.4000000E+00  0.3742002E-15  0.1262379E-14  0.4444444E-01
    1      -13.863459   1.000000
    2      -13.203133   1.000000
    3      -12.656684   1.000000
    4      -12.333973   1.000000
    5      -11.944166   1.000000
    6      -11.628482   1.000000
    7      -11.474216   1.000000
    8      -11.377013   1.000000
    9      -11.135441   1.000000
   10      -11.100726   1.000000
   11      -10.985800   1.000000
   12      -10.940886   1.000000
   13      -10.717440   1.000000
   14      -10.671256   1.000000
   15      -10.534826   1.000000
   16      -10.501510   1.000000
   17      -10.208235   1.000000
   18      -10.117025   1.000000
   19       -9.999687   1.000000
   20       -9.785573   1.000000
   21       -9.550148   1.000000
   22       -9.278137   1.000000
   23       -9.219152   1.000000
   24       -9.154087   1.000000
   25       -8.882614   1.000000
   26       -8.699179   1.000000
   27       -8.239326   1.000000
   28       -8.074158   1.000000
   29       -8.003998   1.000000
   30       -7.883592   1.000000
   31       -7.863467   1.000000
   32       -7.689201   1.000000
   33       -7.584457   1.000000
   34       -7.553771   1.000000
   35       -7.433055   1.000000
   36       -7.345289   1.000000
   37       -7.232022   1.000000
   38       -7.132199   1.000000
   39       -7.066101   1.000000
   40       -6.825260   1.000000
   41       -6.726854   1.000000
   42       -6.526519   1.000000
   43       -6.501589   1.000000
   44       -6.321721   1.000000
   45       -6.254548   1.000000
   46       -6.194734   1.000000
   47       -6.023771   1.000000
   48       -5.972175   1.000000
   49       -5.904597   1.000000
   50       -5.748824   1.000000
   51       -5.703021   1.000000
   52       -5.645339   1.000000
   53       -5.532011   1.000000
   54       -5.487048   1.000000
   55       -5.438838   1.000000
   56       -5.335336   1.000000
   57       -5.253336   1.000000
   58       -5.144852   1.000000
   59       -4.983915   1.000000
   60       -4.944553   1.000000
   61       -4.869110   1.000000
   62       -4.800462   1.000000
   63       -4.713028   1.000000
   64       -4.701344   1.000000
   65       -4.621572   1.000000
   66       -4.525012   1.000000
   67       -4.481291   1.000000
   68       -4.391042   1.000000
   69       -4.356650   1.000000
   70       -4.298011   1.000000
   71       -4.206589   1.000000
   72       -4.167442   1.000000
   73       -4.144527   1.000000
   74       -4.092604   1.000000
   75       -4.072234   1.000000
   76       -3.994966   1.000000
   77       -3.940319   1.000000
   78       -3.903636   1.000000
   79       -3.881035   1.000000
   80       -3.823559   1.000000
   81       -3.783661   1.000000
   82       -3.629256   1.000000
   83       -3.610745   1.000000
   84       -3.509393   1.000000
   85       -3.459265   1.000000
   86       -3.319017   1.000000
   87       -3.306803   1.000000
   88       -3.281564   1.000000
   89       -3.118512   1.000000
   90       -3.091559   1.000000
   91       -3.047593   1.000000
   92       -3.035581   1.000000
   93       -2.918013   1.000000
   94       -2.810929   1.000000
   95       -2.785909   1.000000
   96       -2.742007   1.000000
   97       -2.588850   1.000000
   98       -2.566210   1.000000
   99       -2.506349   1.000000
  100       -2.484721   1.000000
  101       -2.346767   1.000000
  102       -2.267971   1.000000
  103       -2.219419   1.000000
  104       -2.184423   1.000000
  105       -2.119990   1.000000
  106       -2.067337   1.000000
  107       -1.992486   1.000000
  108       -1.920652   1.000000
  109       -1.876264   1.000000
  110       -1.812202   1.000000
  111       -1.674670   1.000000
  112       -1.654519   1.000000
  113       -1.644857   1.000000
  114       -1.509192   1.000000
  115       -1.494199   1.000000
  116       -1.408975   1.000000
  117       -1.356649   1.000000
  118       -1.260035   1.000000
  119       -1.218314   1.000000
  120       -1.190015   1.000000
  121       -1.085582   1.000000
  122       -0.983520   1.000000
  123       -0.960381   1.000000
  124       -0.762209   1.000000
  125       -0.753214   1.000000
  126       -0.668368   1.000001
  127       -0.611046   1.000005
  128       -0.505911   1.000125
  129       -0.412292   1.001271
  130       -0.276141   1.014500
  131       -0.062723   0.970276
  132       -0.030569   0.906274
  133        0.067779   0.566313
  134        0.104818   0.410379
  135        0.152494   0.226442
  136        0.225857   0.036087
  137        0.334798  -0.035309
  138        0.397340  -0.024493
  139        0.475176  -0.009125
  140        0.578689  -0.001289
  141        0.591995  -0.000956
  142        0.693449  -0.000071
  143        0.785849  -0.000004
  144        0.831593  -0.000001
  145        0.936344  -0.000000
  146        0.942991  -0.000000
  147        1.021918  -0.000000
  148        1.050551  -0.000000
  149        1.158292  -0.000000
  150        1.215622  -0.000000
  151        1.231781  -0.000000
  152        1.300888  -0.000000
  153        1.314824  -0.000000
  154        1.329491  -0.000000
  155        1.393676  -0.000000
  156        1.427249  -0.000000
  157        1.438641  -0.000000
  158        1.507640  -0.000000
  159        1.546777  -0.000000
  160        1.601933  -0.000000
  161        1.665142  -0.000000
  162        1.702836  -0.000000
  163        1.725139  -0.000000
  164        1.769816  -0.000000
  165        1.881166  -0.000000
  166        1.950065  -0.000000
  167        2.067160  -0.000000
  168        2.407004  -0.000000

  0.3742002E-15  0.1111111E+00  0.1262379E-14  0.4444444E-01
    1      -13.897420   1.000000
    2      -12.814704   1.000000
    3      -12.629142   1.000000
    4      -12.475501   1.000000
    5      -12.028706   1.000000
    6      -11.660685   1.000000
    7      -11.625881   1.000000
    8      -11.430986   1.000000
    9      -11.401031   1.000000
   10      -11.301621   1.000000
   11      -11.047017   1.000000
   12      -10.996131   1.000000
   13      -10.778573   1.000000
   14      -10.406027   1.000000
   15      -10.210312   1.000000
   16      -10.147257   1.000000
   17      -10.077369   1.000000
   18       -9.985576   1.000000
   19       -9.773866   1.000000
   20       -9.719978   1.000000
   21       -9.549243   1.000000
   22       -9.504307   1.000000
   23       -9.297063   1.000000
   24       -9.224282   1.000000
   25       -8.983242   1.000000
   26       -8.810994   1.000000
   27       -8.478775   1.000000
   28       -8.279882   1.000000
   29       -8.206073   1.000000
   30       -8.180394   1.000000
   31       -7.918442   1.000000
   32       -7.843271   1.000000
   33       -7.714800   1.000000
   34       -7.398219   1.000000
   35       -7.263762   1.000000
   36       -7.151523   1.000000
   37       -7.009028   1.000000
   38       -6.814483   1.000000
   39       -6.707581   1.000000
   40       -6.656061   1.000000
   41       -6.600346   1.000000
   42       -6.548550   1.000000
   43       -6.439367   1.000000
   44       -6.331275   1.000000
   45       -6.201971   1.000000
   46       -6.164480   1.000000
   47       -6.127136   1.000000
   48       -6.047653   1.000000
   49       -5.989495   1.000000
   50       -5.814343   1.000000
   51       -5.778461   1.000000
   52       -5.652434   1.000000
   53       -5.518011   1.000000
   54       -5.488669   1.000000
   55       -5.405623   1.000000
   56       -5.315086   1.000000
   57       -5.196377   1.000000
   58       -5.155771   1.000000
   59       -5.118498   1.000000
   60       -5.078014   1.000000
   61       -4.967040   1.000000
   62       -4.840545   1.000000
   63       -4.800861   1.000000
   64       -4.713495   1.000000
   65       -4.637708   1.000000
   66       -4.559275   1.000000
   67       -4.485236   1.000000
   68       -4.449335   1.000000
   69       -4.433054   1.000000
   70       -4.324311   1.000000
   71       -4.272894   1.000000
   72       -4.238342   1.000000
   73       -4.069643   1.000000
   74       -4.036301   1.000000
   75       -4.009055   1.000000
   76       -3.968553   1.000000
   77       -3.912932   1.000000
   78       -3.866881   1.000000
   79       -3.808594   1.000000
   80       -3.738360   1.000000
   81       -3.679698   1.000000
   82       -3.635714   1.000000
   83       -3.570687   1.000000
   84       -3.502326   1.000000
   85       -3.401495   1.000000
   86       -3.354960   1.000000
   87       -3.336708   1.000000
   88       -3.258323   1.000000
   89       -3.159054   1.000000
   90       -3.103087   1.000000
   91       -3.082097   1.000000
   92       -2.996804   1.000000
   93       -2.935007   1.000000
   94       -2.852220   1.000000
   95       -2.755272   1.000000
   96       -2.700618   1.000000
   97       -2.560417   1.000000
   98       -2.519762   1.000000
   99       -2.470041   1.000000
  100       -2.419519   1.000000
  101       -2.392925   1.000000
  102       -2.369454   1.000000
  103       -2.308839   1.000000
  104       -2.237614   1.000000
  105       -2.217490   1.000000
  106       -2.180483   1.000000
  107       -2.147788   1.000000
  108       -2.067916   1.000000
  109       -1.925118   1.000000
  110       -1.883408   1.000000
  111       -1.819730   1.000000
  112       -1.776948   1.000000
  113       -1.654434   1.000000
  114       -1.575194   1.000000
  115       -1.508913   1.000000
  116       -1.487273   1.000000
  117       -1.381279   1.000000
  118       -1.290954   1.000000
  119       -1.134259   1.000000
  120       -1.105654   1.000000
  121       -0.935143   1.000000
  122       -0.852549   1.000000
  123       -0.780013   1.000000
  124       -0.717913   1.000000
  125       -0.609305   1.000006
  126       -0.523839   1.000076
  127       -0.416857   1.001149
  128       -0.311694   1.008633
  129       -0.260636   1.017654
  130       -0.094995   1.010076
  131       -0.069977   0.981233
  132        0.005509   0.803847
  133        0.075126   0.535419
  134        0.113983   0.372680
  135        0.197648   0.093559
  136        0.290109  -0.028224
  137        0.312857  -0.034418
  138        0.361889  -0.032063
  139        0.449846  -0.013243
  140        0.516473  -0.004529
  141        0.609633  -0.000633
  142        0.667514  -0.000145
  143        0.696022  -0.000066
  144        0.799401  -0.000003
  145        0.839891  -0.000001
  146        0.885447  -0.000000
  147        0.987218  -0.000000
  148        1.008617  -0.000000
  149        1.075740  -0.000000
  150        1.096963  -0.000000
  151        1.152334  -0.000000
  152        1.183604  -0.000000
  153        1.205959  -0.000000
  154        1.276080  -0.000000
  155        1.336588  -0.000000
  156        1.363103  -0.000000
  157        1.384741  -0.000000
  158        1.423659  -0.000000
  159        1.452950  -0.000000
  160        1.476293  -0.000000
  161        1.501231  -0.000000
  162        1.544641  -0.000000
  163        1.583498  -0.000000
  164        1.643616  -0.000000
  165        1.689173  -0.000000
  166        1.891677  -0.000000
  167        1.975491  -0.000000
  168        2.175644  -0.000000

  0.2000000E+00  0.1111111E+00  0.1262379E-14  0.4444444E-01
    1      -13.871155   1.000000
    2      -12.960079   1.000000
    3      -12.710219   1.000000
    4      -12.160160   1.000000
    5      -12.029816   1.000000
    6      -11.964087   1.000000
    7      -11.482403   1.000000
    8      -11.411276   1.000000
    9      -11.227646   1.000000
   10      -11.212201   1.000000
   11      -11.029579   1.000000
   12      -10.985473   1.000000
   13      -10.748165   1.000000
   14      -10.520521   1.000000
   15      -10.452442   1.000000
   16      -10.219338   1.000000
   17      -10.169093   1.000000
   18      -10.016619   1.000000
   19       -9.787966   1.000000
   20       -9.694237   1.000000
   21       -9.544949   1.000000
   22       -9.508537   1.000000
   23       -9.288119   1.000000
   24       -9.198804   1.000000
   25       -8.930130   1.000000
   26       -8.675746   1.000000
   27       -8.388323   1.000000
   28       -8.210613   1.000000
   29       -8.147756   1.000000
   30       -8.093259   1.000000
   31       -7.988603   1.000000
   32       -7.812767   1.000000
   33       -7.609871   1.000000
   34       -7.475899   1.000000
   35       -7.334590   1.000000
   36       -7.192783   1.000000
   37       -7.044591   1.000000
   38       -6.884322   1.000000
   39       -6.755923   1.000000
   40       -6.740070   1.000000
   41       -6.639980   1.000000
   42       -6.567209   1.000000
   43       -6.488268   1.000000
   44       -6.478384   1.000000
   45       -6.312473   1.000000
   46       -6.226049   1.000000
   47       -6.039760   1.000000
   48       -5.974236   1.000000
   49       -5.863529   1.000000
   50       -5.763285   1.000000
   51       -5.754214   1.000000
   52       -5.568485   1.000000
   53       -5.511889   1.000000
   54       -5.501308   1.000000
   55       -5.409060   1.000000
   56       -5.295827   1.000000
   57       -5.189269   1.000000
   58       -5.154676   1.000000
   59       -5.077686   1.000000
   60       -4.997826   1.000000
   61       -4.952807   1.000000
   62       -4.903188   1.000000
   63       -4.748540   1.000000
   64       -4.711429   1.000000
   65       -4.611741   1.000000
   66       -4.520144   1.000000
   67       -4.481724   1.000000
   68       -4.437185   1.000000
   69       -4.386773   1.000000
   70       -4.294650   1.000000
   71       -4.257344   1.000000
   72       -4.218982   1.000000
   73       -4.110449   1.000000
   74       -4.077635   1.000000
   75       -4.020314   1.000000
   76       -3.986200   1.000000
   77       -3.945808   1.000000
   78       -3.874735   1.000000
   79       -3.795653   1.000000
   80       -3.778003   1.000000
   81       -3.746949   1.000000
   82       -3.650048   1.000000
   83       -3.576478   1.000000
   84       -3.494737   1.000000
   85       -3.457335   1.000000
   86       -3.383258   1.000000
   87       -3.311061   1.000000
   88       -3.267568   1.000000
   89       -3.172520   1.000000
   90       -3.087606   1.000000
   91       -3.083044   1.000000
   92       -2.990534   1.000000
   93       -2.912836   1.000000
   94       -2.859038   1.000000
   95       -2.786736   1.000000
   96       -2.675521   1.000000
   97       -2.638614   1.000000
   98       -2.563477   1.000000
   99       -2.497424   1.000000
  100       -2.460035   1.000000
  101       -2.443690   1.000000
  102       -2.314693   1.000000
  103       -2.258854   1.000000
  104       -2.213271   1.000000
  105       -2.152060   1.000000
  106       -2.139320   1.000000
  107       -2.082334   1.000000
  108       -2.026711   1.000000
  109       -1.960105   1.000000
  110       -1.829784   1.000000
  111       -1.777691   1.000000
  112       -1.711904   1.000000
  113       -1.635231   1.000000
  114       -1.568850   1.000000
  115       -1.519894   1.000000
  116       -1.463875   1.000000
  117       -1.378997   1.000000
  118       -1.293237   1.000000
  119       -1.168033   1.000000
  120       -1.107127   1.000000
  121       -1.035113   1.000000
  122       -0.881609   1.000000
  123       -0.791037   1.000000
  124       -0.742787   1.000000
  125       -0.657377   1.000001
  126       -0.610291   1.000005
  127       -0.422279   1.001017
  128       -0.325428   1.006902
  129       -0.302701   1.009926
  130       -0.175399   1.034777
  131       -0.083621   0.998610
  132        0.017256   0.764001
  133        0.090350   0.471052
  134        0.125924   0.324907
  135        0.172460   0.161722
  136        0.215671   0.054552
  137        0.316270  -0.034837
  138        0.359466  -0.032485
  139        0.515056  -0.004647
  140        0.561620  -0.001862
  141        0.601789  -0.000762
  142        0.673376  -0.000124
  143        0.725191  -0.000028
  144        0.836144  -0.000001
  145        0.883511  -0.000000
  146        0.906003  -0.000000
  147        0.984939  -0.000000
  148        1.032792  -0.000000
  149        1.094221  -0.000000
  150        1.127747  -0.000000
  151        1.169786  -0.000000
  152        1.198410  -0.000000
  153        1.257249  -0.000000
  154        1.317393  -0.000000
  155        1.347025  -0.000000
  156        1.370666  -0.000000
  157        1.406555  -0.000000
  158        1.433293  -0.000000
  159        1.452704  -0.000000
  160        1.472964  -0.000000
  161        1.520805  -0.000000
  162        1.568420  -0.000000
  163        1.587104  -0.000000
  164        1.619309  -0.000000
  165        1.690722  -0.000000
  166        1.823637  -0.000000
  167        2.040486  -0.000000
  168        2.168536  -0.000000

  0.4000000E+00  0.1111111E+00  0.1262379E-14  0.4444444E-01
    1      -13.818749   1.000000
    2      -13.162619   1.000000
    3      -12.619953   1.000000
    4      -12.296546   1.000000
    5      -12.018578   1.000000
    6      -11.622511   1.000000
    7      -11.520435   1.000000
    8      -11.410204   1.000000
    9      -11.145589   1.000000
   10      -11.083289   1.000000
   11      -11.008791   1.000000
   12      -10.917863   1.000000
   13      -10.704512   1.000000
   14      -10.676027   1.000000
   15      -10.548726   1.000000
   16      -10.484919   1.000000
   17      -10.223468   1.000000
   18      -10.106418   1.000000
   19      -10.006757   1.000000
   20       -9.805103   1.000000
   21       -9.554251   1.000000
   22       -9.268909   1.000000
   23       -9.227905   1.000000
   24       -9.157499   1.000000
   25       -8.875194   1.000000
   26       -8.684138   1.000000
   27       -8.241740   1.000000
   28       -8.095740   1.000000
   29       -8.018184   1.000000
   30       -7.873394   1.000000
   31       -7.749287   1.000000
   32       -7.687732   1.000000
   33       -7.618646   1.000000
   34       -7.567102   1.000000
   35       -7.461007   1.000000
   36       -7.384541   1.000000
   37       -7.268535   1.000000
   38       -7.104815   1.000000
   39       -6.974934   1.000000
   40       -6.879702   1.000000
   41       -6.776002   1.000000
   42       -6.534410   1.000000
   43       -6.465484   1.000000
   44       -6.387208   1.000000
   45       -6.240478   1.000000
   46       -6.159279   1.000000
   47       -6.034201   1.000000
   48       -5.980171   1.000000
   49       -5.879181   1.000000
   50       -5.767377   1.000000
   51       -5.717245   1.000000