    3    3   60    1
  0.7818830E+01  0.2980000E-09  0.2980000E-09  0.3050000E-09  0.5000000E-15
   1.0000000000000000E-004
  CAR 
 Name                                    
     11    216     10

  0.3742002E-15  0.3742002E-15  0.3742002E-15  0.2962963E-03
    1       -5.618722   1.000000
    2        5.530422   1.000000
    3        5.530424   1.000000
    4        6.606044   1.000000
    5        6.872931   1.000000
    6        9.382031   0.157894
    7        9.382031   0.157892
    8       12.312003   0.000000
    9       12.312004   0.000000
   10       14.164659   0.000000

  0.6666667E-01  0.3777220E-15  0.3742002E-15  0.1777778E-02
    1       -5.532189   1.000000
    2        5.292394   1.000000
    3        5.515640   1.000000
    4        6.474376   1.000000
    5        6.894088   1.000000
    6        9.362219   0.293274
    7        9.603593  -0.000532
    8       11.879384  -0.000000
    9       11.916461  -0.000000
   10       14.632031   0.000000

  0.1333333E+00  0.3824091E-15  0.3742002E-15  0.1777778E-02
    1       -5.274938   1.000000
    2        4.637630   1.000000
    3        5.466884   1.000000
    4        6.180105   1.000000
    5        6.943489   1.000000
    6        9.306638   0.743666
    7       10.155348  -0.000000
    8       11.200845  -0.000000
    9       11.330898  -0.000000
   10       15.327319   0.000000

  0.2000000E+00  0.3806431E-15  0.3742002E-15  0.1777778E-02
    1       -4.853819   1.000000
    2        3.704605   1.000000
    3        5.377921   1.000000
    4        5.863761   1.000000
    5        6.956316   1.000000
    6        9.226023   1.033051
    7       10.729384  -0.000000
    8       10.856827  -0.000000
    9       10.905871  -0.000000
   10       15.842180   0.000000

  0.2666667E+00  0.3859547E-15  0.3742002E-15  0.1777778E-02
    1       -4.279486   1.000000
    2        2.624438   1.000000
    3        5.254280   1.000000
    4        5.594539   1.000000
    5        6.857834   1.000000
    6        9.135187   1.007557
    7       10.612415  -0.000000
    8       10.678626  -0.000000
    9       11.561036  -0.000000
   10       16.213749   0.000000

  0.3333333E+00  0.3635107E-15  0.3742002E-15  0.1777778E-02
    1       -3.565505   1.000000
    2        1.487020   1.000000
    3        5.119344   1.000000
    4        5.395294   1.000000
    5        6.663283   1.000000
    6        9.050001   1.000191
    7       10.606794  -0.000000
    8       10.820047  -0.000000
    9       12.123145   0.000000
   10       15.727011   0.000000

  0.4000000E+00  0.3993534E-15  0.3742002E-15  0.1777778E-02
    1       -2.727464   1.000000
    2        0.349794   1.000000
    3        5.005705   1.000000
    4        5.267997   1.000000
    5        6.466543   1.000000
    6        8.984524   1.000004
    7       10.618902  -0.000000
    8       11.177843  -0.000000
    9       12.430938   0.000000
   10       15.533334   0.000000

  0.4666667E+00  0.3562316E-15  0.3742002E-15  0.1777778E-02
    1       -1.782757   1.000000
    2       -0.748866   1.000000
    3        4.941279   1.000000
    4        5.206917   1.000000
    5        6.349025   1.000000
    6        8.949077   1.000000
    7       10.645887  -0.000000
    8       11.453531  -0.000000
    9       12.524136   0.000000
   10       15.534470   0.000000

  0.6666667E-01  0.6666667E-01  0.3742002E-15  0.1777778E-02
    1       -5.360278   1.000000
    2        4.873421   1.000000
    3        5.443952   1.000000
    4        6.266687   1.000000
    5        6.942961   1.000000
    6        9.314423   0.685108
    7        9.995469  -0.000000
    8       11.394866  -0.000000
    9       11.452965  -0.000000
   10       15.297179   0.000000

  0.1333333E+00  0.6666667E-01  0.3742002E-15  0.3555556E-02
    1       -5.021048   1.000000
    2        4.130116   1.000000
    3        5.268516   1.000000
    4        5.978677   1.000000
    5        7.039672   1.000000
    6        9.218309   1.035215
    7       10.636196  -0.000000
    8       10.830282  -0.000000
    9       11.052408  -0.000000
   10       15.903353   0.000000

  0.2000000E+00  0.6666667E-01  0.3742002E-15  0.3555556E-02
    1       -4.523237   1.000000
    2        3.163204   1.000000
    3        5.030401   1.000000
    4        5.708603   1.000000
    5        7.114252   1.000000
    6        9.091050   1.001390
    7       10.447573  -0.000000
    8       10.871357  -0.000000
    9       11.369951  -0.000000
   10       16.358116   0.000000

  0.2666667E+00  0.6666667E-01  0.3742002E-15  0.3555556E-02
    1       -3.878888   1.000000
    2        2.078316   1.000000
    3        4.778409   1.000000
    4        5.497947   1.000000
    5        7.092981   1.000000
    6        8.952938   1.000000
    7       10.334565  -0.000000
    8       10.905006  -0.000000
    9       12.055832  -0.000000
   10       15.897074   0.000000

  0.3333333E+00  0.6666667E-01  0.3742002E-15  0.3555556E-02
    1       -3.102641   1.000000
    2        0.953382   1.000000
    3        4.560746   1.000000
    4        5.355997   1.000000
    5        6.989962   1.000000
    6        8.827345   1.000000
    7       10.414788  -0.000000
    8       11.095382  -0.000000
    9       12.545883   0.000000
   10       15.557386   0.000000

  0.4000000E+00  0.6666667E-01  0.3742002E-15  0.3555556E-02
    1       -2.211096   1.000000
    2       -0.158981   1.000000
    3        4.415154   1.000000
    4        5.277177   1.000000
    5        6.885298   1.000000
    6        8.738585   1.000000
    7       10.531414  -0.000000
    8       11.328980  -0.000000
    9       12.769494   0.000000
   10       15.499004   0.000000

  0.4666667E+00  0.6666667E-01  0.3742002E-15  0.1777778E-02
    1       -1.230703   1.000000
    2       -1.214739   1.000000
    3        4.364153   1.000000
    4        5.252288   1.000000
    5        6.843287   1.000000
    6        8.706388   1.000000
    7       10.580340  -0.000000
    8       11.437456  -0.000000
    9       12.818524   0.000000
   10       15.523209   0.000000

  0.1333333E+00  0.1333333E+00  0.3742002E-15  0.1777778E-02
    1       -4.605034   1.000000
    2        3.451792   1.000000
    3        4.787982   1.000000
    4        5.760737   1.000000
    5        7.278131   1.000000
    6        9.033470   1.000077
    7       10.383462  -0.000000
    8       10.945725  -0.000000
    9       11.336414  -0.000000
   10       16.637906   0.000000

  0.2000000E+00  0.1333333E+00  0.3742002E-15  0.3555556E-02
    1       -4.036951   1.000000
    2        2.593231   1.000000
    3        4.255378   1.000000
    4        5.587140   1.000000
    5        7.538772   1.000000
    6        8.789198   1.000000
    7       10.058361  -0.000000
    8       11.006876  -0.000000
    9       12.115495   0.000000
   10       16.009827   0.000000

  0.2666667E+00  0.1333333E+00  0.3742002E-15  0.3555556E-02
    1       -3.330005   1.000000
    2        1.587617   1.000000
    3        3.827173   1.000000
    4        5.478171   1.000000
    5        7.688544   1.000000
    6        8.530080   1.000000
    7        9.992885  -0.000000
    8       11.137414  -0.000000
    9       12.823935   0.000000
   10       15.573802   0.000000

  0.3333333E+00  0.1333333E+00  0.3742002E-15  0.3555556E-02
    1       -2.500108   1.000000
    2        0.516847   1.000000
    3        3.540446   1.000000
    4        5.426685   1.000000
    5        7.701540   1.000000
    6        8.308638   1.000000
    7       10.163490  -0.000000
    8       11.240031  -0.000000
    9       13.293955   0.000000
   10       15.418041   0.000000

  0.4000000E+00  0.1333333E+00  0.3742002E-15  0.3555556E-02
    1       -1.566426   1.000000
    2       -0.548729   1.000000
    3        3.397285   1.000000
    4        5.410785   1.000000
    5        7.670713   1.000000
    6        8.179247   1.000000
    7       10.362665  -0.000000
    8       11.269834  -0.000000
    9       13.474520   0.000000
   10       15.457831   0.000000

  0.2000000E+00  0.2000000E+00  0.3742002E-15  0.1777778E-02
    1       -3.406143   1.000000
    2        1.959057   1.000000
    3        3.409717   1.000000
    4        5.537914   1.000000
    5        8.023446   1.000000
    6        8.391665   1.000000
    7        9.750529  -0.000000
    8       11.161397  -0.000000
    9       12.954052   0.000000
   10       15.579555   0.000000

  0.2666667E+00  0.2000000E+00  0.3742002E-15  0.3555556E-02
    1       -2.645527   1.000000
    2        1.154884   1.000000
    3        2.777381   1.000000
    4        5.563523   1.000000
    5        7.984157   1.000000
    6        8.374205   1.000000
    7        9.694462  -0.000003
    8       11.215839  -0.000000
    9       13.711316   0.000000
   10       15.324051   0.000000

  0.3333333E+00  0.2000000E+00  0.3742002E-15  0.3555556E-02
    1       -1.774827   1.000000
    2        0.193050   1.000000
    3        2.440876   1.000000
    4        5.629291   1.000000
    5        7.663871   1.000000
    6        8.473253   1.000000
    7        9.948492  -0.000000
    8       11.116340  -0.000000
    9       14.159873   0.000000
   10       15.317095   0.000000

  0.4000000E+00  0.2000000E+00  0.3742002E-15  0.1777778E-02
    1       -0.902121   1.000000
    2       -0.722944   1.000000
    3        2.338449   1.000000
    4        5.666032   1.000000
    5        7.538062   1.000000
    6        8.474022   1.000000
    7       10.152725  -0.000000
    8       11.002249  -0.000000
    9       14.267541   0.000000
   10       15.391798   0.000000

  0.2666667E+00  0.2666667E+00  0.3742002E-15  0.1777778E-02
    1       -1.844599   1.000000
    2        0.689173   1.000000
    3        1.868963   1.000000
    4        5.750937   1.000000
    5        7.433102   1.000000
    6        9.010940   1.000020
    7        9.532831  -0.009102
    8       11.064587  -0.000000
    9       14.517176   0.000000
   10       15.181431   0.000000

  0.3333333E+00  0.2666667E+00  0.3742002E-15  0.3555556E-02
    1       -0.967222   1.000000
    2       -0.021144   1.000000
    3        1.405409   1.000000
    4        5.969256   1.000000
    5        7.017078   1.000000
    6        9.211287   1.035311
    7        9.804332  -0.000000
    8       10.748315  -0.000000
    9       14.894479   0.000000
   10       15.255680   0.000000

  0.3333333E+00  0.3333333E+00  0.3742002E-15  0.5925926E-03
    1       -0.269643   1.000000
    2       -0.269641   1.000000
    3        0.805716   1.000000
    4        6.438930   1.000000
    5        6.438931   1.000000
    6        9.706533  -0.000001
    7        9.706533  -0.000001
    8       10.417169  -0.000000
    9       15.215883   0.000000
   10       15.215884   0.000000

  0.3742002E-15  0.3742002E-15  0.6666667E-01  0.5925926E-03
    1       -5.553909   1.000000
    2        5.582939   1.000000
    3        5.582941   1.000000
    4        5.759281   1.000000
    5        7.625179   1.000000
    6        9.236166   1.025887
    7        9.236166   1.025887
    8       12.202151   0.000000
    9       12.202158   0.000000
   10       14.394322   0.000000

  0.6666667E-01  0.3777220E-15  0.6666667E-01  0.3555556E-02
    1       -5.468076   1.000000
    2        5.338623   1.000000
    3        5.561106   1.000000
    4        5.735970   1.000000
    5        7.500594   1.000000
    6        9.215499   1.035440
    7        9.488820  -0.026794
    8       11.857345  -0.000000
    9       11.897390  -0.000000
   10       14.791639   0.000000

  0.1333333E+00  0.3824091E-15  0.6666667E-01  0.3555556E-02
    1       -5.212957   1.000000
    2        4.669415   1.000000
    3        5.491653   1.000000
    4        5.660180   1.000000
    5        7.296763   1.000000
    6        9.167339   1.018733
    7       10.036277  -0.000000
    8       11.294864  -0.000000
    9       11.403936  -0.000000
   10       15.375919   0.000000

  0.2000000E+00  0.3806431E-15  0.6666667E-01  0.3555556E-02
    1       -4.795435   1.000000
    2        3.722818   1.000000
    3        5.371072   1.000000
    4        5.538184   1.000000
    5        7.116846   1.000000
    6        9.122927   1.004958
    7       10.486676  -0.000000
    8       11.019877  -0.000000
    9       11.105662  -0.000000
   10       15.816897   0.000000

  0.2666667E+00  0.3859547E-15  0.6666667E-01  0.3555556E-02
    1       -4.226178   1.000000
    2        2.635587   1.000000
    3        5.212120   1.000000
    4        5.404228   1.000000
    5        6.911874   1.000000
    6        9.103693   1.002371
    7       10.563812  -0.000000
    8       10.784489  -0.000000
    9       11.586096  -0.000000
   10       15.881591   0.000000

  0.3333333E+00  0.3635107E-15  0.6666667E-01  0.3555556E-02
    1       -3.518686   1.000000
    2        1.497763   1.000000
    3        5.046456   1.000000
    4        5.292410   1.000000
    5        6.672197   1.000000
    6        9.104057   1.002406
    7       10.675740  -0.000000
    8       10.774853  -0.000000
    9       12.086879   0.000000
   10       15.470744   0.000000

  0.4000000E+00  0.3993534E-15  0.6666667E-01  0.3555556E-02
    1       -2.688306   1.000000
    2        0.364845   1.000000
    3        4.911498   1.000000
    4        5.218161   1.000000
    5        6.459603   1.000000
    6        9.107725   1.002788
    7       10.650897  -0.000000
    8       11.089936  -0.000000
    9       12.406131   0.000000
   10       15.161508   0.000000

  0.4666667E+00  0.3562316E-15  0.6666667E-01  0.3555556E-02
    1       -1.751837   1.000000
    2       -0.726822   1.000000
    3        4.836446   1.000000
    4        5.182550   1.000000
    5        6.337262   1.000000
    6        9.108564   1.002882
    7       10.657418  -0.000000
    8       11.311495  -0.000000
    9       12.563501   0.000000
   10       14.994028   0.000000

  0.6666667E-01  0.6666667E-01  0.6666667E-01  0.3555556E-02
    1       -5.297594   1.000000
    2        4.911285   1.000000
    3        5.472650   1.000000
    4        5.686583   1.000000
    5        7.369219   1.000000
    6        9.154733   1.013607
    7        9.900332  -0.000000
    8       11.439354  -0.000000
    9       11.519657  -0.000000
   10       15.361852   0.000000

  0.1333333E+00  0.6666667E-01  0.6666667E-01  0.7111111E-02
    1       -4.961234   1.000000
    2        4.155863   1.000000
    3        5.266143   1.000000
    4        5.590835   1.000000
    5        7.286519   1.000000
    6        9.047510   1.000167
    7       10.468617  -0.000000
    8       10.978296  -0.000000
    9       11.204962  -0.000000
   10       15.922620   0.000000

  0.2000000E+00  0.6666667E-01  0.6666667E-01  0.7111111E-02
    1       -4.467779   1.000000
    2        3.178172   1.000000
    3        5.000228   1.000000
    4        5.471749   1.000000
    5        7.229086   1.000000
    6        8.958174   1.000001
    7       10.542809  -0.000000
    8       10.868621  -0.000000
    9       11.424482  -0.000000
   10       16.129260   0.000000

  0.2666667E+00  0.6666667E-01  0.6666667E-01  0.7111111E-02
    1       -3.829280   1.000000
    2        2.088817   1.000000
    3        4.732324   1.000000
    4        5.361999   1.000000
    5        7.106226   1.000000
    6        8.926921   1.000000
    7       10.451334  -0.000000
    8       10.897124  -0.000000
    9       12.012790  -0.000000
   10       15.682850   0.000000

  0.3333333E+00  0.6666667E-01  0.6666667E-01  0.7111111E-02
    1       -3.060250   1.000000
    2        0.965667   1.000000
    3        4.507830   1.000000
    4        5.283695   1.000000
    5        6.931909   1.000000
    6        8.926112   1.000000
    7       10.486104  -0.000000
    8       11.057501  -0.000000
    9       12.473850   0.000000
   10       15.291436   0.000000

  0.4000000E+00  0.6666667E-01  0.6666667E-01  0.7111111E-02
    1       -2.177033   1.000000
    2       -0.140719   1.000000
    3        4.359856   1.000000
    4        5.241049   1.000000
    5        6.787206   1.000000
    6        8.920465   1.000000
    7       10.560145  -0.000000
    8       11.254987  -0.000000
    9       12.733675   0.000000
   10       15.072814   0.000000

  0.4666667E+00  0.6666667E-01  0.6666667E-01  0.3555556E-02
    1       -1.224027   1.000000
    2       -1.169696   1.000000
    3        4.308352   1.000000
    4        5.228155   1.000000
    5        6.732412   1.000000
    6        8.915531   1.000000
    7       10.594487  -0.000000
    8       11.342531  -0.000000
    9       12.818935   0.000000
   10       14.995279   0.000000

  0.1333333E+00  0.1333333E+00  0.6666667E-01  0.3555556E-02
    1       -4.548878   1.000000
    2        3.472545   1.000000
    3        4.757491   1.000000
    4        5.501059   1.000000
    5        7.462038   1.000000
    6        8.802033   1.000000
    7       10.576361  -0.000000
    8       10.877675  -0.000000
    9       11.399918  -0.000000
   10       16.456558   0.000000

  0.2000000E+00  0.1333333E+00  0.6666667E-01  0.7111111E-02
    1       -3.985992   1.000000
    2        2.606981   1.000000
    3        4.220609   1.000000
    4        5.421959   1.000000
    5        7.643718   1.000000
    6        8.582358   1.000000
    7       10.286217  -0.000000
    8       11.004622  -0.000000
    9       12.053991  -0.000000
   10       15.875346   0.000000

  0.2666667E+00  0.1333333E+00  0.6666667E-01  0.7111111E-02
    1       -3.285776   1.000000
    2        1.598123   1.000000
    3        3.799786   1.000000
    4        5.377247   1.000000
    5        7.600683   1.000000
    6        8.555817   1.000000
    7       10.171690  -0.000000
    8       11.129011  -0.000000
    9       12.705500   0.000000
   10       15.418968   0.000000

  0.3333333E+00  0.1333333E+00  0.6666667E-01  0.7111111E-02
    1       -2.464116   1.000000
    2        0.530687   1.000000
    3        3.519928   1.000000
    4        5.368078   1.000000
    5        7.414245   1.000000
    6        8.609306   1.000000
    7       10.253686  -0.000000
    8       11.220964  -0.000000
    9       13.174348   0.000000
   10       15.158078   0.000000

  0.4000000E+00  0.1333333E+00  0.6666667E-01  0.7111111E-02
    1       -1.541099   1.000000
    2       -0.525881   1.000000
    3        3.380313   1.000000
    4        5.374776   1.000000
    5        7.281432   1.000000
    6        8.621513   1.000000
    7       10.398825  -0.000000
    8       11.245909  -0.000000
    9       13.399858   0.000000
   10       15.056413   0.000000

  0.2000000E+00  0.2000000E+00  0.6666667E-01  0.3555556E-02
    1       -3.361325   1.000000
    2        1.970113   1.000000
    3        3.387776   1.000000
    4        5.422083   1.000000
    5        8.126560   1.000000
    6        8.149466   1.000000
    7       10.016579  -0.000000
    8       11.160502  -0.000000
    9       12.817295   0.000000
   10       15.478206   0.000000

  0.2666667E+00  0.2000000E+00  0.6666667E-01  0.7111111E-02
    1       -2.608602   1.000000
    2        1.163675   1.000000
    3        2.772719   1.000000
    4        5.481337   1.000000
    5        7.688972   1.000000
    6        8.582354   1.000000
    7        9.902862  -0.000000
    8       11.213189  -0.000000
    9       13.529071   0.000000
   10       15.200923   0.000000

  0.3333333E+00  0.2000000E+00  0.6666667E-01  0.7111111E-02
    1       -1.748032   1.000000
    2        0.207442   1.000000
    3        2.446149   1.000000
    4        5.570687   1.000000
    5        7.352548   1.000000
    6        8.790862   1.000000
    7       10.046343  -0.000000
    8       11.120315  -0.000000
    9       14.011736   0.000000
   10       15.085610   0.000000

  0.4000000E+00  0.2000000E+00  0.6666667E-01  0.3555556E-02
    1       -0.908647   1.000000
    2       -0.676070   1.000000
    3        2.346452   1.000000
    4        5.617636   1.000000
    5        7.220281   1.000000
    6        8.827447   1.000000
    7       10.204985  -0.000000
    8       11.016141  -0.000000
    9       14.166493   0.000000
   10       15.076246   0.000000

  0.2666667E+00  0.2666667E+00  0.6666667E-01  0.3555556E-02
    1       -1.817358   1.000000
    2        0.693367   1.000000
    3        1.888255   1.000000
    4        5.676109   1.000000
    5        7.245036   1.000000
    6        9.113529   1.003497
    7        9.739439  -0.000000
    8       11.073570  -0.000000
    9       14.294123   0.000000
   10       15.070659   0.000000

  0.3333333E+00  0.2666667E+00  0.6666667E-01  0.7111111E-02
    1       -0.954516   1.000000
    2       -0.010042   1.000000
    3        1.437146   1.000000
    4        5.897249   1.000000
    5        6.856505   1.000000
    6        9.380705   0.165887
    7        9.904985  -0.000000
    8       10.775802  -0.000000
    9       14.739079   0.000000
   10       15.056329   0.000000

  0.3333333E+00  0.3333333E+00  0.6666667E-01  0.1185185E-02
    1       -0.271346   1.000000
    2       -0.271345   1.000000
    3        0.867573   1.000000
    4        6.337086   1.000000
    5        6.337087   1.000000
    6        9.825432  -0.000000
    7        9.825432  -0.000000
    8       10.453434  -0.000000
    9       15.046140   0.000000
   10       15.046140   0.000000

  0.3742002E-15  0.3742002E-15  0.1333333E+00  0.5925926E-03
    1       -5.362460   1.000000
    2        4.725592   1.000000
    3        5.739710   1.000000
    4        5.739711   1.000000
    5        8.398641   1.000000
    6        8.876474   1.000000
    7        8.876475   1.000000
    8       11.886280  -0.000000
    9       11.886281  -0.000000
   10       15.030968   0.000000

  0.6666667E-01  0.3777220E-15  0.1333333E+00  0.3555556E-02
    1       -5.278808   1.000000
    2        4.740318   1.000000
    3        5.475342   1.000000
    4        5.694412   1.000000
    5        8.061282   1.000000
    6        8.865442   1.000000
    7        9.300332   0.787821
    8       11.699783  -0.000000
    9       11.755859  -0.000000
   10       15.285920   0.000000

  0.1333333E+00  0.3824091E-15  0.1333333E+00  0.3555556E-02
    1       -5.030251   1.000000
    2        4.691208   1.000000
    3        4.856417   1.000000
    4        5.558630   1.000000
    5        7.673944   1.000000
    6        8.863315   1.000000
    7        9.870511  -0.000000
    8       11.380945  -0.000000
    9       11.493663  -0.000000
   10       15.556473   0.000000

  0.2000000E+00  0.3806431E-15  0.1333333E+00  0.3555556E-02
    1       -4.623850   1.000000
    2        3.763818   1.000000
    3        4.866918   1.000000
    4        5.345260   1.000000
    5        7.333229   1.000000
    6        8.923679   1.000000
    7       10.255325  -0.000000
    8       11.239308  -0.000000
    9       11.343220  -0.000000
   10       15.699923   0.000000

  0.2666667E+00  0.3859547E-15  0.1333333E+00  0.3555556E-02
    1       -4.070338   1.000000
    2        2.664459   1.000000
    3        4.937437   1.000000
    4        5.093023   1.000000
    5        6.996727   1.000000
    6        9.062692   1.000367
    7       10.429475  -0.000000
    8       11.029557  -0.000000
    9       11.681810  -0.000000
   10       15.413423   0.000000

  0.3333333E+00  0.3635107E-15  0.1333333E+00  0.3555556E-02
    1       -3.383119   1.000000
    2        1.530351   1.000000
    3        4.853426   1.000000
    4        5.010239   1.000000
    5        6.676017   1.000000
    6        9.248633   1.008308
    7       10.635474  -0.000000
    8       10.867165  -0.000000
    9       12.075624   0.000000
   10       14.961389   0.000000

  0.4000000E+00  0.3993534E-15  0.1333333E+00  0.3555556E-02
    1       -2.577540   1.000000
    2        0.413792   1.000000
    3        4.670323   1.000000
    4        5.074118   1.000000
    5        6.420551   1.000000
    6        9.424816  -0.007593
    7       10.753033  -0.000000
    8       10.866891  -0.000000
    9       12.400018   0.000000
   10       14.552021   0.000000

  0.4666667E+00  0.3562316E-15  0.1333333E+00  0.3555556E-02
    1       -1.675205   1.000000
    2       -0.647111   1.000000
    3        4.572109   1.000000
    4        5.113561   1.000000
    5        6.278465   1.000000
    6        9.532627  -0.009160
    7       10.692490  -0.000000
    8       11.004216  -0.000000
    9       12.648792   0.000000
   10       14.249281   0.000000

  0.6666667E-01  0.6666667E-01  0.1333333E+00  0.3555556E-02
    1       -5.112700   1.000000
    2        4.764236   1.000000
    3        5.020872   1.000000
    4        5.560810   1.000000
    5        7.821571   1.000000
    6        8.791829   1.000000
    7        9.764430  -0.000000
    8       11.434830  -0.000000
    9       11.578150  -0.000000
   10       15.625201   0.000000

  0.1333333E+00  0.6666667E-01  0.1333333E+00  0.7111111E-02
    1       -4.785224   1.000000
    2        4.222027   1.000000
    3        4.804189   1.000000
    4        5.301197   1.000000
    5        7.632471   1.000000
    6        8.700111   1.000000
    7       10.280506  -0.000000
    8       11.155973  -0.000000
    9       11.422033  -0.000000
   10       15.973030   0.000000

  0.2000000E+00  0.6666667E-01  0.1333333E+00  0.7111111E-02
    1       -4.305240   1.000000
    2        3.216154   1.000000
    3        4.791065   1.000000
    4        5.056991   1.000000
    5        7.397696   1.000000
    6        8.748299   1.000000
    7       10.526898  -0.000000
    8       11.029857  -0.000000
    9       11.559225  -0.000000
   10       15.756587   0.000000

  0.2666667E+00  0.6666667E-01  0.1333333E+00  0.7111111E-02
    1       -3.684888   1.000000
    2        2.118576   1.000000
    3        4.588835   1.000000
    4        5.025466   1.000000
    5        7.086961   1.000000
    6        8.941757   1.000000
    7       10.616256  -0.000000
    8       10.938053  -0.000000
    9       11.978759  -0.000000
   10       15.249842   0.000000

  0.3333333E+00  0.6666667E-01  0.1333333E+00  0.7111111E-02
    1       -2.938601   1.000000
    2        1.004253   1.000000
    3        4.359680   1.000000
    4        5.081197   1.000000
    5        6.783140   1.000000
    6        9.177969   1.023553
    7       10.668928  -0.000000
    8       10.953633  -0.000000
    9       12.374198   0.000000
   10       14.786224   0.000000

  0.4000000E+00  0.6666667E-01  0.1333333E+00  0.7111111E-02
    1       -2.083644   1.000000
    2       -0.080086   1.000000
    3        4.205313   1.000000
    4        5.137301   1.000000
    5        6.565063   1.000000
    6        9.358484   0.322091
    7       10.648356  -0.000000
    8       11.066085  -0.000000
    9       12.686555   0.000000
   10       14.416881   0.000000

  0.4666667E+00  0.6666667E-01  0.1333333E+00  0.3555556E-02
    1       -1.250499   1.000000
    2       -0.990913   1.000000
    3        4.151579   1.000000
    4        5.161032   1.000000
    5        6.485389   1.000000
    6        9.424397  -0.006792
    7       10.634768  -0.000000
    8       11.117373  -0.000000
    9       12.837982   0.000000
   10       14.242393   0.000000

  0.1333333E+00  0.1333333E+00  0.1333333E+00  0.3555556E-02
    1       -4.384143   1.000000
    2        3.531307   1.000000
    3        4.574689   1.000000
    4        5.026245   1.000000
    5        7.825654   1.000000
    6        8.354491   1.000000
    7       10.738213  -0.000000
    8       10.882478  -0.000000
    9       11.545996  -0.000000
   10       16.116378   0.000000

  0.2000000E+00  0.1333333E+00  0.1333333E+00  0.7111111E-02
    1       -3.837317   1.000000
    2        2.645191   1.000000
    3        4.105186   1.000000
    4        5.036649   1.000000
    5        7.724021   1.000000
    6        8.375878   1.000000
    7       10.670888  -0.000000
    8       10.983410  -0.000000
    9       11.967257  -0.000000
   10       15.586029   0.000000

  0.2666667E+00  0.1333333E+00  0.1333333E+00  0.7111111E-02
    1       -3.158019   1.000000
    2        1.629137   1.000000
    3        3.719754   1.000000
    4        5.112195   1.000000
    5        7.320717   1.000000
    6        8.750337   1.000000
    7       10.548497  -0.000000
    8       11.095952  -0.000000
    9       12.485294   0.000000
   10       15.081212   0.000000

  0.3333333E+00  0.1333333E+00  0.1333333E+00  0.7111111E-02
    1       -2.362524   1.000000
    2        0.574490   1.000000
    3        3.460300   1.000000
    4        5.204909   1.000000
    5        6.973767   1.000000
    6        9.088971   1.001269
    7       10.496794  -0.000000
    8       11.162433  -0.000000
    9       12.932012   0.000000
   10       14.678716   0.000000

  0.4000000E+00  0.1333333E+00  0.1333333E+00  0.7111111E-02
    1       -1.478665   1.000000
    2       -0.447562   1.000000
    3        3.329782   1.000000
    4        5.274979   1.000000
    5        6.770485   1.000000
    6        9.276877   0.920184
    7       10.502755  -0.000000
    8       11.180040  -0.000000
    9       13.240216   0.000000
   10       14.395504   0.000000

  0.2000000E+00  0.2000000E+00  0.1333333E+00  0.3555556E-02
    1       -3.231588   1.000000
    2        2.001214   1.000000
    3        3.323833   1.000000
    4        5.127579   1.000000
    5        7.632187   1.000000
    6        8.472702   1.000000
    7       10.496968  -0.000000
    8       11.148814  -0.000000
    9       12.547108   0.000000
   10       15.240510   0.000000

  0.2666667E+00  0.2000000E+00  0.1333333E+00  0.7111111E-02
    1       -2.503293   1.000000
    2        1.189359   1.000000
    3        2.760861   1.000000
    4        5.262949   1.000000
    5        7.206335   1.000000
    6        8.935027   1.000000
    7       10.352401  -0.000000
    8       11.203511  -0.000000
    9       13.149999   0.000000
   10       14.916914   0.000000
