    3    3   60    1
  0.8144830E+01  0.3039000E-09  0.3039000E-09  0.3055000E-09  0.5000000E-15
   1.0000000000000000E-004
  CAR 
 Name                                    
     12    216     10

  0.3742002E-15  0.3742002E-15  0.3742002E-15  0.2962963E-03
    1       -5.411412   1.000000
    2        4.669616   1.000000
    3        4.952590   1.000000
    4        4.952593   1.000000
    5        6.220121   1.000000
    6       10.023902   0.653766
    7       10.023903   0.653758
    8       12.571969  -0.000000
    9       14.756204   0.000000
   10       14.756226   0.000000

  0.6666667E-01  0.3766815E-15  0.3742002E-15  0.1777778E-02
    1       -5.318997   1.000000
    2        4.717073   1.000000
    3        4.757399   1.000000
    4        4.995744   1.000000
    5        6.000161   1.000000
    6        9.979707   0.931814
    7       10.329030  -0.000194
    8       12.071176  -0.000000
    9       12.165984  -0.000000
   10       15.179877   0.000000

  0.1333333E+00  0.3754153E-15  0.3742002E-15  0.1777778E-02
    1       -5.046355   1.000000
    2        4.137488   1.000000
    3        4.935591   1.000000
    4        5.106643   1.000000
    5        5.505246   1.000000
    6        9.857331   1.012553
    7       11.045540  -0.000000
    8       11.202798  -0.000000
    9       11.546214  -0.000000
   10       15.824888   0.000000

  0.2000000E+00  0.3870416E-15  0.3742002E-15  0.1777778E-02
    1       -4.606585   1.000000
    2        3.326604   1.000000
    3        4.958339   1.000000
    4        5.127076   1.000000
    5        5.235279   1.000000
    6        9.683596   1.000002
    7       10.535805  -0.000000
    8       11.122321  -0.000000
    9       11.821722  -0.000000
   10       16.273329   0.000000

  0.2666667E+00  0.4120044E-15  0.3742002E-15  0.1777778E-02
    1       -4.019305   1.000000
    2        2.409523   1.000000
    3        4.470018   1.000000
    4        5.156918   1.000000
    5        5.325103   1.000000
    6        9.492866   1.000000
    7       10.372077  -0.000016
    8       10.983412  -0.000000
    9       12.290590  -0.000000
   10       16.545766   0.000000

  0.3333333E+00  0.4025434E-15  0.3742002E-15  0.1777778E-02
    1       -3.309234   1.000000
    2        1.448512   1.000000
    3        4.085618   1.000000
    4        4.974467   1.000000
    5        5.350582   1.000000
    6        9.318343   1.000000
    7       10.792818  -0.000000
    8       11.096124  -0.000000
    9       12.286015  -0.000000
   10       16.630862   0.000000

  0.4000000E+00  0.3732510E-15  0.3742002E-15  0.1777778E-02
    1       -2.509569   1.000000
    2        0.482832   1.000000
    3        3.823809   1.000000
    4        4.721513   1.000000
    5        5.332350   1.000000
    6        9.186855   1.000000
    7       11.330159  -0.000000
    8       11.579826  -0.000000
    9       12.068875  -0.000000
   10       16.594671   0.000000

  0.4666667E+00  0.3915456E-15  0.3742002E-15  0.1777778E-02
    1       -1.711734   1.000000
    2       -0.397677   1.000000
    3        3.691695   1.000000
    4        4.556697   1.000000
    5        5.309964   1.000000
    6        9.116586   1.000000
    7       11.511190  -0.000000
    8       11.907003  -0.000000
    9       12.281897  -0.000000
   10       16.421198   0.000000

  0.6666667E-01  0.6666667E-01  0.3742002E-15  0.1777778E-02
    1       -5.136418   1.000000
    2        4.340998   1.000000
    3        4.842088   1.000000
    4        5.090001   1.000000
    5        5.651852   1.000000
    6        9.871191   1.018015
    7       10.859225  -0.000000
    8       11.471415  -0.000000
    9       11.655906  -0.000000
   10       15.756034   0.000000

  0.1333333E+00  0.6666667E-01  0.3742002E-15  0.3555556E-02
    1       -4.779925   1.000000
    2        3.675949   1.000000
    3        4.882103   1.000000
    4        5.159105   1.000000
    5        5.329780   1.000000
    6        9.655374   1.000000
    7       10.715940  -0.000000
    8       11.240407  -0.000000
    9       11.672817  -0.000000
   10       16.321777   0.000000

  0.2000000E+00  0.6666667E-01  0.3742002E-15  0.3555556E-02
    1       -4.265494   1.000000
    2        2.850348   1.000000
    3        4.675821   1.000000
    4        4.782124   1.000000
    5        5.631641   1.000000
    6        9.377000   1.000000
    7       10.187470  -0.029791
    8       11.139855  -0.000000
    9       12.430192  -0.000000
   10       16.436712   0.000000

  0.2666667E+00  0.6666667E-01  0.3742002E-15  0.3555556E-02
    1       -3.614635   1.000000
    2        1.941756   1.000000
    3        4.272240   1.000000
    4        4.554138   1.000000
    5        5.834460   1.000000
    6        9.084298   1.000000
    7       10.117904   0.022425
    8       11.352775  -0.000000
    9       12.780774   0.000000
   10       16.622273   0.000000

  0.3333333E+00  0.6666667E-01  0.3742002E-15  0.3555556E-02
    1       -2.854364   1.000000
    2        0.994337   1.000000
    3        3.976356   1.000000
    4        4.279169   1.000000
    5        5.880382   1.000000
    6        8.827046   1.000000
    7       10.499670  -0.000000
    8       11.753118  -0.000000
    9       12.725545  -0.000000
   10       16.820827   0.000000

  0.4000000E+00  0.6666667E-01  0.3742002E-15  0.3555556E-02
    1       -2.029188   1.000000
    2        0.055465   1.000000
    3        3.797585   1.000000
    4        4.064587   1.000000
    5        5.848894   1.000000
    6        8.650719   1.000000
    7       11.044552  -0.000000
    8       12.132966  -0.000000
    9       12.575616  -0.000000
   10       16.765548   0.000000

  0.4666667E+00  0.6666667E-01  0.3742002E-15  0.1777778E-02
    1       -1.427538   1.000000
    2       -0.584470   1.000000
    3        3.737960   1.000000
    4        3.984878   1.000000
    5        5.828235   1.000000
    6        8.587953   1.000000
    7       11.312460  -0.000000
    8       12.287624  -0.000000
    9       12.510858  -0.000000
   10       16.714148   0.000000

  0.1333333E+00  0.1333333E+00  0.3742002E-15  0.1777778E-02
    1       -4.348078   1.000000
    2        3.064867   1.000000
    3        4.575847   1.000000
    4        4.767211   1.000000
    5        5.745169   1.000000
    6        9.248045   1.000000
    7       10.108177   0.055820
    8       11.226086  -0.000000
    9       12.587924  -0.000000
   10       16.372205   0.000000

  0.2000000E+00  0.1333333E+00  0.3742002E-15  0.3555556E-02
    1       -3.767697   1.000000
    2        2.341058   1.000000
    3        4.129041   1.000000
    4        4.424345   1.000000
    5        6.207751   1.000000
    6        8.748083   1.000000
    7        9.648502   1.000000
    8       11.542369  -0.000000
    9       13.454512   0.000000
   10       16.148671   0.000000

  0.2666667E+00  0.1333333E+00  0.3742002E-15  0.3555556E-02
    1       -3.060792   1.000000
    2        1.518528   1.000000
    3        3.676036   1.000000
    4        4.169527   1.000000
    5        6.541391   1.000000
    6        8.260107   1.000000
    7        9.610144   1.000000
    8       11.961709  -0.000000
    9       13.851183   0.000000
   10       16.589610   0.000000

  0.3333333E+00  0.1333333E+00  0.3742002E-15  0.3555556E-02
    1       -2.256774   1.000000
    2        0.623254   1.000000
    3        3.329899   1.000000
    4        4.009415   1.000000
    5        6.643622   1.000000
    6        7.874579   1.000000
    7       10.058720   0.364063
    8       12.174962  -0.000000
    9       13.845334   0.000000
   10       17.375377   0.000000

  0.4000000E+00  0.1333333E+00  0.3742002E-15  0.3555556E-02
    1       -1.427774   1.000000
    2       -0.258726   1.000000
    3        3.147505   1.000000
    4        3.934615   1.000000
    5        6.633727   1.000000
    6        7.661854   1.000000
    7       10.663828  -0.000000
    8       12.031739  -0.000000
    9       13.779465   0.000000
   10       17.533787   0.000000

  0.2000000E+00  0.2000000E+00  0.3742002E-15  0.1777778E-02
    1       -3.129416   1.000000
    2        1.800960   1.000000
    3        3.365143   1.000000
    4        4.263099   1.000000
    5        6.864653   1.000000
    6        8.018063   1.000000
    7        9.197800   1.000000
    8       12.035774  -0.000000
    9       14.594814   0.000000
   10       16.005327   0.000000

  0.2666667E+00  0.2000000E+00  0.3742002E-15  0.3555556E-02
    1       -2.372431   1.000000
    2        1.156178   1.000000
    3        2.706810   1.000000
    4        4.204333   1.000000
    5        7.349470   1.000000
    6        7.385044   1.000000
    7        9.147653   1.000000
    8       12.218644  -0.000000
    9       15.178331   0.000000
   10       16.534543   0.000000

  0.3333333E+00  0.2000000E+00  0.3742002E-15  0.3555556E-02
    1       -1.529272   1.000000
    2        0.351787   1.000000
    3        2.315487   1.000000
    4        4.216998   1.000000
    5        6.868560   1.000000
    6        7.526372   1.000000
    7        9.693582   1.000005
    8       11.880218  -0.000000
    9       15.184590   0.000000
   10       17.525045   0.000000

  0.4000000E+00  0.2000000E+00  0.3742002E-15  0.1777778E-02
    1       -0.810628   1.000000
    2       -0.366415   1.000000
    3        2.193697   1.000000
    4        4.235084   1.000000
    5        6.689513   1.000000
    6        7.521671   1.000000
    7       10.195910  -0.026072
    8       11.470598  -0.000000
    9       15.159966   0.000000
   10       17.991134   0.000000

  0.2666667E+00  0.2666667E+00  0.3742002E-15  0.1777778E-02
    1       -1.571310   1.000000
    2        0.796745   1.000000
    3        1.802932   1.000000
    4        4.378873   1.000000
    5        6.528566   1.000000
    6        8.270524   1.000000
    7        8.893123   1.000000
    8       11.836242  -0.000000
    9       16.438516   0.000000
   10       16.550356   0.000000

  0.3333333E+00  0.2666667E+00  0.3742002E-15  0.3555556E-02
    1       -0.695353   1.000000
    2        0.186442   1.000000
    3        1.297296   1.000000
    4        4.612197   1.000000
    5        5.956518   1.000000
    6        8.490072   1.000000
    7        9.451015   1.000000
    8       11.075204  -0.000000
    9       16.433024   0.000000
   10       17.482567   0.000000

  0.3333333E+00  0.3333333E+00  0.3742002E-15  0.5925926E-03
    1        0.084144   1.000000
    2        0.084146   1.000000
    3        0.501319   1.000000
    4        5.195621   1.000000
    5        5.195624   1.000000
    6        9.249728   1.000000
    7        9.249729   1.000000
    8       10.450438  -0.000000
    9       17.223889   0.000000
   10       17.223889   0.000000

  0.3742002E-15  0.3742002E-15  0.6666667E-01  0.5925926E-03
    1       -5.342967   1.000000
    2        4.384069   1.000000
    3        5.006408   1.000000
    4        5.006410   1.000000
    5        6.456810   1.000000
    6        9.811854   1.002639
    7        9.811855   1.002639
    8       12.419453  -0.000000
    9       12.419456  -0.000000
   10       15.688865   0.000000

  0.6666667E-01  0.3766815E-15  0.6666667E-01  0.3555556E-02
    1       -5.251627   1.000000
    2        4.440833   1.000000
    3        4.778475   1.000000
    4        5.044038   1.000000
    5        6.241365   1.000000
    6        9.744557   1.000105
    7       10.089233   0.147903
    8       12.072086  -0.000000
    9       12.161852  -0.000000
   10       15.372045   0.000000

  0.1333333E+00  0.3754153E-15  0.6666667E-01  0.3555556E-02
    1       -4.982305   1.000000
    2        4.166201   1.000000
    3        4.562553   1.000000
    4        5.135679   1.000000
    5        5.809195   1.000000
    6        9.585551   1.000000
    7       10.503533  -0.000000
    8       11.648127  -0.000000
    9       11.723637  -0.000000
   10       15.815089   0.000000

  0.2000000E+00  0.3870416E-15  0.6666667E-01  0.3555556E-02
    1       -4.548203   1.000000
    2        3.324367   1.000000
    3        4.586921   1.000000
    4        5.226741   1.000000
    5        5.449850   1.000000
    6        9.437393   1.000000
    7       10.327248  -0.000213
    8       11.384157  -0.000000
    9       12.009579  -0.000000
   10       16.002626   0.000000

  0.2666667E+00  0.4120044E-15  0.6666667E-01  0.3555556E-02
    1       -3.968892   1.000000
    2        2.380516   1.000000
    3        4.388802   1.000000
    4        5.232192   1.000000
    5        5.261709   1.000000
    6        9.376226   1.000000
    7       10.259309  -0.004462
    8       11.212190  -0.000000
    9       12.391244  -0.000000
   10       16.171316   0.000000

  0.3333333E+00  0.4025434E-15  0.6666667E-01  0.3555556E-02
    1       -3.268226   1.000000
    2        1.402740   1.000000
    3        4.123062   1.000000
    4        4.989122   1.000000
    5        5.229498   1.000000
    6        9.379666   1.000000
    7       10.639864  -0.000000
    8       11.228927  -0.000000
    9       12.399130  -0.000000
   10       16.788062   0.000000

  0.4000000E+00  0.3732510E-15  0.6666667E-01  0.3555556E-02
    1       -2.475744   1.000000
    2        0.428164   1.000000
    3        3.918790   1.000000
    4        4.729080   1.000000
    5        5.167502   1.000000
    6        9.385150   1.000000
    7       11.179309  -0.000000
    8       11.383325  -0.000000
    9       12.416724  -0.000000
   10       16.610169   0.000000

  0.4666667E+00  0.3915456E-15  0.6666667E-01  0.3555556E-02
    1       -1.663387   1.000000
    2       -0.474073   1.000000
    3        3.812982   1.000000
    4        4.565221   1.000000
    5        5.122735   1.000000
    6        9.380261   1.000000
    7       11.375074  -0.000000
    8       11.527477  -0.000000
    9       12.777924   0.000000
   10       16.257267   0.000000

  0.6666667E-01  0.6666667E-01  0.6666667E-01  0.3555556E-02
    1       -5.071260   1.000000
    2        4.381609   1.000000
    3        4.530797   1.000000
    4        5.063229   1.000000
    5        5.956010   1.000000
    6        9.566274   1.000000
    7       10.530501  -0.000000
    8       11.615384  -0.000000
    9       11.882570  -0.000000
   10       15.846014   0.000000

  0.1333333E+00  0.6666667E-01  0.6666667E-01  0.7111111E-02
    1       -4.719285   1.000000
    2        3.698638   1.000000
    3        4.604203   1.000000
    4        4.962508   1.000000
    5        5.762627   1.000000
    6        9.260252   1.000000
    7       10.735441  -0.000000
    8       11.247189  -0.000000
    9       11.951657  -0.000000
   10       16.217516   0.000000

  0.2000000E+00  0.6666667E-01  0.6666667E-01  0.7111111E-02
    1       -4.211785   1.000000
    2        2.844062   1.000000
    3        4.472185   1.000000
    4        4.777053   1.000000
    5        5.797750   1.000000
    6        8.995197   1.000000
    7       10.460975  -0.000000
    8       11.193584  -0.000000
    9       12.507578  -0.000000
   10       16.128740   0.000000

  0.2666667E+00  0.6666667E-01  0.6666667E-01  0.7111111E-02
    1       -3.569957   1.000000
    2        1.910170   1.000000
    3        4.210990   1.000000
    4        4.557917   1.000000
    5        5.829211   1.000000
    6        8.906167   1.000000
    7       10.395993  -0.000003
    8       11.331210  -0.000000
    9       12.811005   0.000000
   10       16.382777   0.000000

  0.3333333E+00  0.6666667E-01  0.6666667E-01  0.7111111E-02
    1       -2.819138   1.000000
    2        0.947914   1.000000
    3        3.998069   1.000000
    4        4.293585   1.000000
    5        5.752019   1.000000
    6        8.924013   1.000000
    7       10.640497  -0.000000
    8       11.613962  -0.000000
    9       12.822087   0.000000
   10       16.801182   0.000000

  0.4000000E+00  0.6666667E-01  0.6666667E-01  0.7111111E-02
    1       -1.996318   1.000000
    2       -0.001685   1.000000
    3        3.881934   1.000000
    4        4.069670   1.000000
    5        5.648663   1.000000
    6        8.911783   1.000000
    7       11.083512  -0.000000
    8       11.784525  -0.000000
    9       12.897997   0.000000
   10       16.623194   0.000000

  0.4666667E+00  0.6666667E-01  0.6666667E-01  0.3555556E-02
    1       -1.356444   1.000000
    2       -0.683792   1.000000
    3        3.856103   1.000000
    4        3.973606   1.000000
    5        5.605062   1.000000
    6        8.896470   1.000000
    7       11.335000  -0.000000
    8       11.781256  -0.000000
    9       12.999609   0.000000
   10       16.473130   0.000000

  0.1333333E+00  0.1333333E+00  0.6666667E-01  0.3555556E-02
    1       -4.293296   1.000000
    2        3.085230   1.000000
    3        4.408253   1.000000
    4        4.632364   1.000000
    5        6.034757   1.000000
    6        8.711820   1.000000
    7       10.631020  -0.000000
    8       11.142599  -0.000000
    9       12.632606  -0.000000
   10       16.221882   0.000000

  0.2000000E+00  0.1333333E+00  0.6666667E-01  0.7111111E-02
    1       -3.721248   1.000000
    2        2.342247   1.000000
    3        3.952088   1.000000
    4        4.449498   1.000000
    5        6.369047   1.000000
    6        8.254271   1.000000
    7       10.207425  -0.020770
    8       11.505745  -0.000000
    9       13.396679   0.000000
   10       16.017749   0.000000

  0.2666667E+00  0.1333333E+00  0.6666667E-01  0.7111111E-02
    1       -3.024563   1.000000
    2        1.493736   1.000000
    3        3.563983   1.000000
    4        4.250943   1.000000
    5        6.475041   1.000000
    6        8.129587   1.000000
    7       10.008212   0.771569
    8       11.904323  -0.000000
    9       13.776452   0.000000
   10       16.389357   0.000000

  0.3333333E+00  0.1333333E+00  0.6666667E-01  0.7111111E-02
    1       -2.229878   1.000000
    2        0.581994   1.000000
    3        3.284782   1.000000
    4        4.103915   1.000000
    5        6.321193   1.000000
    6        8.195015   1.000000
    7       10.234651  -0.010192
    8       12.084346  -0.000000
    9       13.836710   0.000000
   10       16.916859   0.000000

  0.4000000E+00  0.1333333E+00  0.6666667E-01  0.7111111E-02
    1       -1.392093   1.000000
    2       -0.320058   1.000000
    3        3.137678   1.000000
    4        4.032802   1.000000
    5        6.178481   1.000000
    6        8.197773   1.000000
    7       10.726649  -0.000000
    8       11.938259  -0.000000
    9       13.828346   0.000000
   10       17.103998   0.000000

  0.2000000E+00  0.2000000E+00  0.6666667E-01  0.3555556E-02
    1       -3.092839   1.000000
    2        1.801583   1.000000
    3        3.232237   1.000000
    4        4.314284   1.000000
    5        7.030257   1.000000
    6        7.530157   1.000000
    7        9.757502   1.000212
    8       11.999939  -0.000000
    9       14.429649   0.000000
   10       15.904797   0.000000

  0.2666667E+00  0.2000000E+00  0.6666667E-01  0.7111111E-02
    1       -2.347648   1.000000
    2        1.137739   1.000000
    3        2.640854   1.000000
    4        4.262759   1.000000
    5        6.829113   1.000000
    6        7.745812   1.000000
    7        9.537983   1.000000
    8       12.181398  -0.000000
    9       15.029294   0.000000
   10       16.346872   0.000000

  0.3333333E+00  0.2000000E+00  0.6666667E-01  0.7111111E-02
    1       -1.514198   1.000000
    2        0.316689   1.000000
    3        2.300705   1.000000
    4        4.279562   1.000000
    5        6.377356   1.000000
    6        8.065091   1.000000
    7        9.854933   1.011724
    8       11.863626  -0.000000
    9       15.105405   0.000000
   10       17.169784   0.000000

  0.4000000E+00  0.2000000E+00  0.6666667E-01  0.3555556E-02
    1       -0.757170   1.000000
    2       -0.447478   1.000000
    3        2.195055   1.000000
    4        4.300847   1.000000
    5        6.206044   1.000000
    6        8.107295   1.000000
    7       10.279398  -0.002031
    8       11.478755  -0.000000
    9       15.098678   0.000000
   10       17.551789   0.000000

  0.2666667E+00  0.2666667E+00  0.6666667E-01  0.3555556E-02
    1       -1.560916   1.000000
    2        0.773384   1.000000
    3        1.780550   1.000000
    4        4.415684   1.000000
    5        6.289667   1.000000
    6        8.403073   1.000000
    7        9.246120   1.000000
    8       11.831931  -0.000000
    9       16.318528   0.000000
   10       16.348461   0.000000

  0.3333333E+00  0.2666667E+00  0.6666667E-01  0.7111111E-02
    1       -0.699754   1.000000
    2        0.154937   1.000000
    3        1.309785   1.000000
    4        4.632426   1.000000
    5        5.788564   1.000000
    6        8.754207   1.000000
    7        9.602207   1.000000
    8       11.104105  -0.000000
    9       16.333134   0.000000
   10       17.288053   0.000000

  0.3333333E+00  0.3333333E+00  0.6666667E-01  0.1185185E-02
    1        0.031708   1.000000
    2        0.031711   1.000000
    3        0.586230   1.000000
    4        5.149312   1.000000
    5        5.149314   1.000000
    6        9.434885   1.000000
    7        9.434886   1.000000
    8       10.481900  -0.000000
    9       17.104557   0.000000
   10       17.104558   0.000000

  0.3742002E-15  0.3742002E-15  0.1333333E+00  0.5925926E-03
    1       -5.141798   1.000000
    2        3.762208   1.000000
    3        5.167469   1.000000
    4        5.167471   1.000000
    5        6.947223   1.000000
    6        9.314523   1.000000
    7        9.314525   1.000000
    8       11.991885  -0.000000
    9       11.991888  -0.000000
   10       15.596667   0.000000

  0.6666667E-01  0.3766815E-15  0.1333333E+00  0.3555556E-02
    1       -5.053853   1.000000
    2        3.811677   1.000000
    3        4.921526   1.000000
    4        5.186867   1.000000
    5        6.695057   1.000000
    6        9.221356   1.000000
    7        9.584712   1.000000
    8       11.877446  -0.000000
    9       11.982789  -0.000000
   10       15.899796   0.000000

  0.1333333E+00  0.3754153E-15  0.1333333E+00  0.3555556E-02
    1       -4.794896   1.000000
    2        3.891801   1.000000
    3        4.304332   1.000000
    4        5.216830   1.000000
    5        6.234293   1.000000
    6        9.056794   1.000000
    7        9.905969   1.032987
    8       11.886711  -0.000000
    9       11.928716  -0.000000
   10       15.941371   0.000000

  0.2000000E+00  0.3870416E-15  0.1333333E+00  0.3555556E-02
    1       -4.378642   1.000000
    2        3.277024   1.000000
    3        4.154394   1.000000
    4        5.193786   1.000000
    5        5.793561   1.000000
    6        9.019652   1.000000
    7        9.901450   1.031412
    8       11.818743  -0.000000
    9       12.327013  -0.000000
   10       15.696679   0.000000

  0.2666667E+00  0.4120044E-15  0.1333333E+00  0.3555556E-02
    1       -3.824631   1.000000
    2        2.299250   1.000000
    3        4.213040   1.000000
    4        5.083184   1.000000
    5        5.393059   1.000000
    6        9.200712   1.000000
    7        9.963471   0.987309
    8       11.689321  -0.000000
    9       12.688259  -0.000000
   10       15.693859   0.000000

  0.3333333E+00  0.4025434E-15  0.1333333E+00  0.3555556E-02
    1       -3.154832   1.000000
    2        1.298190   1.000000
    3        4.201677   1.000000
    4        4.920614   1.000000
    5        5.028845   1.000000
    6        9.532023   1.000000
    7       10.281947  -0.001825
    8       11.590911  -0.000000
    9       12.724972  -0.000000
   10       16.151029   0.000000

  0.4000000E+00  0.3732510E-15  0.1333333E+00  0.3555556E-02
    1       -2.391115   1.000000
    2        0.315859   1.000000
    3        4.159369   1.000000
    4        4.736209   1.000000
    5        4.771488   1.000000
    6        9.856167   1.012146
    7       10.625932  -0.000000
    8       11.559974  -0.000000
    9       12.886315   0.000000
   10       16.292440   0.000000

  0.4666667E+00  0.3915456E-15  0.1333333E+00  0.3555556E-02
    1       -1.559575   1.000000
    2       -0.623411   1.000000
    3        4.129869   1.000000
    4        4.570997   1.000000
    5        4.685240   1.000000
    6       10.039373   0.525769
    7       10.752544  -0.000000
    8       11.578412  -0.000000
    9       13.328429   0.000000
   10       15.876759   0.000000

  0.6666667E-01  0.6666667E-01  0.1333333E+00  0.3555556E-02
    1       -4.880373   1.000000
    2        3.891950   1.000000
    3        4.500786   1.000000
    4        5.148118   1.000000
    5        6.421463   1.000000
    6        8.962622   1.000000
    7       10.002920   0.807115
    8       11.689291  -0.000000
    9       12.053445  -0.000000
   10       16.372319   0.000000

  0.1333333E+00  0.6666667E-01  0.1333333E+00  0.7111111E-02
    1       -4.542595   1.000000
    2        3.716907   1.000000
    3        4.047525   1.000000
    4        4.977500   1.000000
    5        6.238826   1.000000
    6        8.615571   1.000000
    7       10.333828  -0.000150
    8       11.593700  -0.000000
    9       12.284133  -0.000000
   10       16.085477   0.000000

  0.2000000E+00  0.6666667E-01  0.1333333E+00  0.7111111E-02
    1       -4.056933   1.000000
    2        2.810763   1.000000
    3        4.095419   1.000000
    4        4.752608   1.000000
    5        6.070105   1.000000
    6        8.497071   1.000000
    7       10.432754  -0.000000
    8       11.571129  -0.000000
    9       12.723201  -0.000000
   10       15.758478   0.000000

  0.2666667E+00  0.6666667E-01  0.1333333E+00  0.7111111E-02
    1       -3.444026   1.000000
    2        1.830553   1.000000
    3        4.069232   1.000000
    4        4.535815   1.000000
    5        5.787720   1.000000
    6        8.725099   1.000000
    7       10.625076  -0.000000
    8       11.506223  -0.000000
    9       12.977767   0.000000
   10       15.904740   0.000000

  0.3333333E+00  0.6666667E-01  0.1333333E+00  0.7111111E-02
    1       -2.725627   1.000000
    2        0.846837   1.000000
    3        4.000287   1.000000
    4        4.343258   1.000000
    5        5.472255   1.000000
    6        9.141355   1.000000
    7       10.897476  -0.000000
    8       11.468381  -0.000000
    9       13.065335   0.000000
   10       16.301187   0.000000

  0.4000000E+00  0.6666667E-01  0.1333333E+00  0.7111111E-02
    1       -1.923415   1.000000
    2       -0.113036   1.000000
    3        3.938864   1.000000
    4        4.210014   1.000000
    5        5.239322   1.000000
    6        9.470488   1.000000
    7       11.144826  -0.000000
    8       11.443976  -0.000000
    9       13.308510   0.000000
   10       16.210001   0.000000

  0.4666667E+00  0.6666667E-01  0.1333333E+00  0.3555556E-02
    1       -1.148633   1.000000
    2       -0.939929   1.000000
    3        3.913322   1.000000
    4        4.165153   1.000000
    5        5.154571   1.000000
    6        9.577227   1.000000
    7       11.286583  -0.000000
    8       11.400510  -0.000000
    9       13.504244   0.000000
   10       16.004542   0.000000

  0.1333333E+00  0.1333333E+00  0.1333333E+00  0.3555556E-02
    1       -4.135004   1.000000
    2        3.143332   1.000000
    3        3.878748   1.000000
    4        4.613441   1.000000
    5        6.555194   1.000000
    6        7.954937   1.000000
    7       10.899210  -0.000000
    8       11.289254  -0.000000
    9       12.776029   0.000000
   10       16.006455   0.000000

  0.2000000E+00  0.1333333E+00  0.1333333E+00  0.7111111E-02
    1       -3.589289   1.000000
    2        2.341577   1.000000
    3        3.609343   1.000000
    4        4.454951   1.000000
    5        6.640371   1.000000
    6        7.704545   1.000000
    7       10.967749  -0.000000
    8       11.405932  -0.000000
    9       13.347884   0.000000
   10       15.754734   0.000000

  0.2666667E+00  0.1333333E+00  0.1333333E+00  0.7111111E-02
    1       -2.925673   1.000000
    2        1.433197   1.000000
    3        3.366576   1.000000
    4        4.362330   1.000000
    5        6.213881   1.000000
    6        8.166029   1.000000
    7       10.775442  -0.000000
    8       11.735088  -0.000000
    9       13.693970   0.000000
   10       15.985391   0.000000

  0.3333333E+00  0.1333333E+00  0.1333333E+00  0.7111111E-02
    1       -2.165333   1.000000
    2        0.495550   1.000000
    3        3.194741   1.000000
    4        4.302587   1.000000
    5        5.785967   1.000000
    6        8.736730   1.000000
    7       10.732412  -0.000000
    8       11.854932  -0.000000
    9       13.859172   0.000000
   10       16.370426   0.000000

  0.4000000E+00  0.1333333E+00  0.1333333E+00  0.7111111E-02
    1       -1.330096   1.000000
    2       -0.430936   1.000000
    3        3.104548   1.000000
    4        4.282872   1.000000
    5        5.537540   1.000000
    6        9.057438   1.000000
    7       10.919954  -0.000000
    8       11.734697  -0.000000
    9       13.953038   0.000000
   10       16.497141   0.000000

  0.2000000E+00  0.2000000E+00  0.1333333E+00  0.3555556E-02
    1       -2.992142   1.000000
    2        1.801452   1.000000
    3        2.962986   1.000000
    4        4.386993   1.000000
    5        6.808910   1.000000
    6        7.469963   1.000000
    7       10.668741  -0.000000
    8       11.875947  -0.000000
    9       14.146305   0.000000
   10       15.681159   0.000000

  0.2666667E+00  0.2000000E+00  0.1333333E+00  0.7111111E-02
    1       -2.285374   1.000000
    2        1.090092   1.000000
    3        2.509071   1.000000
    4        4.381978   1.000000
    5        6.217478   1.000000
    6        8.181005   1.000000
    7       10.366562  -0.000023
    8       12.069654  -0.000000
    9       14.737847   0.000000
   10       15.998135   0.000000
