 running on    4 total cores
 distrk:  each k-point on    4 cores,    1 groups
 distr:  one band on    2 cores,    2 groups
 using from now: INCAR     
 vasp.5.4.4.18Apr17-6-g9f103f2a35 (build Dec  7 2020 12:43:57) complex           
 POSCAR found type information on POSCAR  Mo B 
 POSCAR found :  2 types and       3 ions
 scaLAPACK will be used
 LDA part: xc-table for Pade appr. of Perdew
 POSCAR, INCAR and KPOINTS ok, starting setup
 FFT: planning ...
 WAVECAR not read
 augmentation electrons   12.018373587906812     
 soft         electrons   0.0000000000000000     
 augmentation electrons   12.018373587906812     
 soft         electrons   0.0000000000000000     
 augmentation electrons   12.018373587906812     
 soft         electrons   0.0000000000000000     
 total        electrons   12.018373587906812     
 augmentation electrons   12.018373587906812     
 soft         electrons   0.0000000000000000     
 total        electrons   12.018373587906812     
 total        electrons   12.018373587906812     
 total        electrons   12.018373587906812     
 augmentation electrons   169.75791458332097     
 soft         electrons   0.0000000000000000     
 augmentation electrons   169.75791458332097     
 soft         electrons   0.0000000000000000     
 augmentation electrons   169.75791458332097     
 soft         electrons   0.0000000000000000     
 augmentation electrons   169.75791458332097     
 soft         electrons   0.0000000000000000     
 total        electrons   169.75791458332097     
 total        electrons   169.75791458332097     
 total        electrons   169.75791458332097     
 total        electrons   169.75791458332097     
 entering main loop
       N       E                     dE             d eps       ncg     rms          rms(c)
DAV:   1     0.349194751041E+02    0.34919E+02   -0.57127E+03  4320   0.105E+03
DAV:   2    -0.217895136163E+02   -0.56709E+02   -0.53801E+02  5162   0.219E+02
DAV:   3    -0.239736891581E+02   -0.21842E+01   -0.20915E+01  6044   0.379E+01
DAV:   4    -0.240009608191E+02   -0.27272E-01   -0.26670E-01  5510   0.320E+00
DAV:   5    -0.240013618045E+02   -0.40099E-03   -0.40045E-03  5586   0.292E-01    0.352E+01
RMM:   6    -0.199675393907E+02    0.40338E+01   -0.13888E+01  4336   0.236E+01    0.849E+00
RMM:   7    -0.200039156358E+02   -0.36376E-01   -0.46631E-01  4332   0.452E+00    0.514E+00
RMM:   8    -0.200677553936E+02   -0.63840E-01   -0.49605E-01  4320   0.814E+00    0.298E+00
RMM:   9    -0.200189225839E+02    0.48833E-01   -0.11516E-01  4320   0.251E+00    0.445E-01
RMM:  10    -0.200181595972E+02    0.76299E-03   -0.55938E-03  4378   0.617E-01    0.326E-01
RMM:  11    -0.200170165543E+02    0.11430E-02   -0.20759E-03  4322   0.367E-01    0.712E-02
RMM:  12    -0.200170713173E+02   -0.54763E-04   -0.20387E-04  4350   0.133E-01    0.263E-02
RMM:  13    -0.200170841692E+02   -0.12852E-04   -0.68469E-05  4333   0.707E-02    0.237E-02
RMM:  14    -0.200170774735E+02    0.66957E-05   -0.22910E-05  4310   0.382E-02    0.433E-03
RMM:  15    -0.200170770940E+02    0.37954E-06   -0.92998E-07  2806   0.956E-03
   1 F= -.20017077E+02 E0= -.20016670E+02  d E =-.200171E+02
 curvature:   0.00 expect dE= 0.000E+00 dE for cont linesearch  0.000E+00
 trial: gam= 0.00000 g(F)=  0.321E-43 g(S)=  0.485E-01 ort = 0.000E+00 (trialstep = 0.100E+01)
 search vector abs. value=  0.485E-01
 bond charge predicted
       N       E                     dE             d eps       ncg     rms          rms(c)
DAV:   1    -0.200539301621E+02   -0.36853E-01   -0.15426E+00  4410   0.105E+01    0.565E-01
RMM:   2    -0.200479172586E+02    0.60129E-02   -0.32231E-02  4324   0.167E+00    0.732E-01
RMM:   3    -0.200473256059E+02    0.59165E-03   -0.11210E-03  4342   0.235E-01    0.463E-01
RMM:   4    -0.200472431515E+02    0.82454E-04   -0.87930E-04  4320   0.291E-01    0.565E-02
RMM:   5    -0.200473392615E+02   -0.96110E-04   -0.32465E-04  4320   0.175E-01    0.804E-02
RMM:   6    -0.200473327881E+02    0.64733E-05   -0.49409E-05  4320   0.647E-02    0.237E-02
RMM:   7    -0.200473460524E+02   -0.13264E-04   -0.22527E-05  4313   0.647E-02    0.146E-02
RMM:   8    -0.200473453114E+02    0.74102E-06   -0.38576E-06  3538   0.173E-02
   2 F= -.20047345E+02 E0= -.20047370E+02  d E =-.302682E-01
 trial-energy change:   -0.030268  1 .order   -0.031620   -0.048454   -0.014785
 step:   1.7632(harm=  1.4391)  dis= 0.00000  next Energy=   -20.052387 (dE=-0.353E-01)
 bond charge predicted
       N       E                     dE             d eps       ncg     rms          rms(c)
DAV:   1    -0.200555207329E+02   -0.81747E-02   -0.90537E-01  4380   0.798E+00    0.398E-01
RMM:   2    -0.200538813615E+02    0.16394E-02   -0.14941E-02  4324   0.120E+00    0.507E-01
RMM:   3    -0.200540101008E+02   -0.12874E-03   -0.53631E-04  4343   0.196E-01    0.322E-01
RMM:   4    -0.200546308019E+02   -0.62070E-03   -0.57216E-04  4320   0.313E-01    0.800E-02
RMM:   5    -0.200549758573E+02   -0.34506E-03   -0.59797E-04  4320   0.298E-01    0.841E-02
RMM:   6    -0.200549939301E+02   -0.18073E-04   -0.93019E-05  4320   0.975E-02    0.241E-02
RMM:   7    -0.200550193845E+02   -0.25454E-04   -0.68343E-05  4324   0.119E-01    0.146E-02
RMM:   8    -0.200550188993E+02    0.48522E-06   -0.32718E-06  3250   0.130E-02
   3 F= -.20055019E+02 E0= -.20054964E+02  d E =-.379418E-01
 curvature:  -0.33 expect dE=-0.499E-03 dE for cont linesearch -0.499E-03
 ZBRENT: increasing intervall
 opt :   3.2897  next Energy=   -20.058689 (dE=-0.416E-01)
 bond charge predicted
       N       E                     dE             d eps       ncg     rms          rms(c)
DAV:   1    -0.200483701866E+02    0.66492E-02   -0.36064E+00  4340   0.158E+01    0.891E-01
RMM:   2    -0.200430409406E+02    0.53292E-02   -0.57093E-02  4323   0.237E+00    0.109E+00
RMM:   3    -0.200436846636E+02   -0.64372E-03   -0.23937E-03  4349   0.462E-01    0.678E-01
RMM:   4    -0.200467363113E+02   -0.30516E-02   -0.35305E-03  4320   0.774E-01    0.170E-01
RMM:   5    -0.200480599446E+02   -0.13236E-02   -0.23415E-03  4320   0.584E-01    0.158E-01
RMM:   6    -0.200482684177E+02   -0.20847E-03   -0.47666E-04  4323   0.267E-01    0.417E-02
RMM:   7    -0.200483267671E+02   -0.58349E-04   -0.22450E-04  4320   0.209E-01    0.212E-02
RMM:   8    -0.200483279046E+02   -0.11375E-05   -0.10006E-05  3849   0.184E-02    0.689E-03
RMM:   9    -0.200483276594E+02    0.24520E-06   -0.68238E-07  2785   0.685E-03
   4 F= -.20048328E+02 E0= -.20048397E+02  d E =-.312506E-01
 curvature:  -2.41 expect dE=-0.226E-01 dE for cont linesearch -0.226E-01
 ZBRENT: bracketing found
 ZBRENT: interpolating
 opt :   2.2018  next Energy=   -20.056903 (dE=-0.398E-01)
 bond charge predicted
       N       E                     dE             d eps       ncg     rms          rms(c)
DAV:   1    -0.200567724337E+02   -0.84445E-02   -0.18578E+00  4320   0.115E+01    0.658E-01
RMM:   2    -0.200535994115E+02    0.31730E-02   -0.29690E-02  4323   0.173E+00    0.787E-01
RMM:   3    -0.200540750154E+02   -0.47560E-03   -0.13210E-03  4350   0.350E-01    0.485E-01
RMM:   4    -0.200558596961E+02   -0.17847E-02   -0.15399E-03  4320   0.540E-01    0.147E-01
RMM:   5    -0.200569504109E+02   -0.10907E-02   -0.16955E-03  4320   0.530E-01    0.114E-01
RMM:   6    -0.200570932109E+02   -0.14280E-03   -0.31494E-04  4323   0.206E-01    0.383E-02
RMM:   7    -0.200571374744E+02   -0.44264E-04   -0.18920E-04  4320   0.196E-01    0.160E-02
RMM:   8    -0.200571392177E+02   -0.17433E-05   -0.90275E-06  4034   0.306E-02    0.605E-03
RMM:   9    -0.200571391805E+02    0.37185E-07   -0.12848E-06  2920   0.139E-02
   5 F= -.20057139E+02 E0= -.20057108E+02  d E =-.400621E-01
 curvature:  -0.20 expect dE=-0.379E-05 dE for cont linesearch -0.379E-05
 trial: gam= 0.00000 g(F)=  0.178E-42 g(S)=  0.189E-04 ort =-0.957E-03 (trialstep = 0.124E+01)
 search vector abs. value=  0.189E-04
 reached required accuracy - stopping structural energy minimisation
 writing wavefunctions
 augmentation electrons   1.1829525164540646     
 soft         electrons   10.839499617456029     
 augmentation electrons   1.1829525164540646     
 soft         electrons   10.839499617456029     
 augmentation electrons   1.1829525164540646     
 soft         electrons   10.839499617456029     
 augmentation electrons   1.1829525164540646     
 soft         electrons   10.839499617456029     
 total        electrons   12.022452133910093     
 total        electrons   12.022452133910093     
 total        electrons   12.022452133910093     
 total        electrons   12.022452133910093     
