   49   49   85    1
  0.2411350E+02  0.8645320E-09  0.6085000E-09  0.2593596E-08  0.5000000E-15
   1.0000000000000000E-004
  CAR 
 Name                                    
    189    149    120

  0.3742002E-15  0.3742002E-15  0.3742002E-15  0.3367003E-02
    1      -14.074954   1.000000
    2      -12.671144   1.000000
    3      -12.587030   1.000000
    4      -12.039920   1.000000
    5      -11.599704   1.000000
    6      -11.314923   1.000000
    7      -11.276793   1.000000
    8      -11.232979   1.000000
    9      -11.082565   1.000000
   10      -10.803640   1.000000
   11      -10.801233   1.000000
   12      -10.414018   1.000000
   13      -10.236621   1.000000
   14      -10.232190   1.000000
   15       -9.860378   1.000000
   16       -9.852982   1.000000
   17       -9.263328   1.000000
   18       -8.948780   1.000000
   19       -8.936788   1.000000
   20       -8.790157   1.000000
   21       -8.641190   1.000000
   22       -8.344598   1.000000
   23       -8.292136   1.000000
   24       -8.191816   1.000000
   25       -8.156574   1.000000
   26       -8.084260   1.000000
   27       -7.435681   1.000000
   28       -7.322178   1.000000
   29       -6.874881   1.000000
   30       -6.673747   1.000000
   31       -6.651155   1.000000
   32       -6.394660   1.000000
   33       -6.150059   1.000000
   34       -5.948699   1.000000
   35       -5.759074   1.000000
   36       -5.707127   1.000000
   37       -5.637387   1.000000
   38       -5.609768   1.000000
   39       -5.485609   1.000000
   40       -5.334773   1.000000
   41       -5.273555   1.000000
   42       -5.198782   1.000000
   43       -5.116613   1.000000
   44       -4.994459   1.000000
   45       -4.963468   1.000000
   46       -4.901676   1.000000
   47       -4.760711   1.000000
   48       -4.727817   1.000000
   49       -4.692460   1.000000
   50       -4.676473   1.000000
   51       -4.566268   1.000000
   52       -4.548444   1.000000
   53       -4.511366   1.000000
   54       -4.436472   1.000000
   55       -4.309420   1.000000
   56       -4.207227   1.000000
   57       -4.192472   1.000000
   58       -4.147704   1.000000
   59       -4.126964   1.000000
   60       -3.981643   1.000000
   61       -3.734573   1.000000
   62       -3.582130   1.000000
   63       -3.547943   1.000000
   64       -3.541184   1.000000
   65       -3.500414   1.000000
   66       -3.459363   1.000000
   67       -3.419220   1.000000
   68       -3.383723   1.000000
   69       -3.334492   1.000000
   70       -3.258062   1.000000
   71       -3.186437   1.000000
   72       -2.837437   1.000000
   73       -2.758552   1.000000
   74       -2.620079   1.000000
   75       -2.513438   1.000000
   76       -2.413311   1.000000
   77       -2.384793   1.000000
   78       -2.334047   1.000000
   79       -2.308744   1.000000
   80       -2.143883   1.000000
   81       -1.893564   1.000000
   82       -1.696620   1.000000
   83       -1.468734   1.000000
   84       -1.289706   1.000000
   85       -1.245784   1.000000
   86       -1.176102   1.000000
   87       -1.094125   1.000000
   88       -1.011667   1.000000
   89       -0.766289   1.000000
   90       -0.483373   1.000000
   91       -0.466414   1.000000
   92       -0.143288   0.990395
   93       -0.084842   0.678855
   94       -0.063375   0.501894
   95        0.080612  -0.030319
   96        0.104956  -0.019380
   97        0.134209  -0.008698
   98        0.415006  -0.000000
   99        0.437539  -0.000000
  100        0.511059  -0.000000
  101        0.541794  -0.000000
  102        0.670226  -0.000000
  103        0.681630  -0.000000
  104        0.713977  -0.000000
  105        0.765616  -0.000000
  106        0.970215  -0.000000
  107        1.132275  -0.000000
  108        1.185110  -0.000000
  109        1.215559  -0.000000
  110        1.299872  -0.000000
  111        1.320898  -0.000000
  112        1.344254  -0.000000
  113        1.391562  -0.000000
  114        1.519628  -0.000000
  115        1.529306  -0.000000
  116        1.603136  -0.000000
  117        1.621678  -0.000000
  118        1.711705  -0.000000
  119        1.755148  -0.000000
  120        1.828673  -0.000000

  0.1111111E+00  0.3729374E-15  0.3860503E-15  0.6734007E-02
    1      -14.047979   1.000000
    2      -12.702778   1.000000
    3      -12.645301   1.000000
    4      -11.982163   1.000000
    5      -11.585397   1.000000
    6      -11.302462   1.000000
    7      -11.274302   1.000000
    8      -11.224831   1.000000
    9      -11.121203   1.000000
   10      -10.799273   1.000000
   11      -10.796485   1.000000
   12      -10.432470   1.000000
   13      -10.234524   1.000000
   14      -10.228485   1.000000
   15       -9.847843   1.000000
   16       -9.838726   1.000000
   17       -9.246367   1.000000
   18       -8.951369   1.000000
   19       -8.940306   1.000000
   20       -8.777877   1.000000
   21       -8.653934   1.000000
   22       -8.400069   1.000000
   23       -8.347960   1.000000
   24       -8.191454   1.000000
   25       -8.136111   1.000000
   26       -8.109258   1.000000
   27       -7.539988   1.000000
   28       -7.316187   1.000000
   29       -6.798291   1.000000
   30       -6.638637   1.000000
   31       -6.623758   1.000000
   32       -6.341751   1.000000
   33       -6.124339   1.000000
   34       -6.003710   1.000000
   35       -5.766361   1.000000
   36       -5.710559   1.000000
   37       -5.611770   1.000000
   38       -5.553371   1.000000
   39       -5.492919   1.000000
   40       -5.365698   1.000000
   41       -5.253641   1.000000
   42       -5.171839   1.000000
   43       -5.110138   1.000000
   44       -4.974939   1.000000
   45       -4.935486   1.000000
   46       -4.882600   1.000000
   47       -4.795341   1.000000
   48       -4.715964   1.000000
   49       -4.676211   1.000000
   50       -4.662109   1.000000
   51       -4.566552   1.000000
   52       -4.538673   1.000000
   53       -4.488805   1.000000
   54       -4.422321   1.000000
   55       -4.306669   1.000000
   56       -4.232394   1.000000
   57       -4.197300   1.000000
   58       -4.139611   1.000000
   59       -4.129990   1.000000
   60       -3.965173   1.000000
   61       -3.768117   1.000000
   62       -3.597965   1.000000
   63       -3.542355   1.000000
   64       -3.522084   1.000000
   65       -3.508417   1.000000
   66       -3.460449   1.000000
   67       -3.413835   1.000000
   68       -3.381754   1.000000
   69       -3.306658   1.000000
   70       -3.250660   1.000000
   71       -3.216773   1.000000
   72       -2.911064   1.000000
   73       -2.736499   1.000000
   74       -2.616293   1.000000
   75       -2.503693   1.000000
   76       -2.468534   1.000000
   77       -2.434211   1.000000
   78       -2.377535   1.000000
   79       -2.316926   1.000000
   80       -2.160919   1.000000
   81       -1.789277   1.000000
   82       -1.742957   1.000000
   83       -1.496247   1.000000
   84       -1.339871   1.000000
   85       -1.220094   1.000000
   86       -1.143000   1.000000
   87       -1.066129   1.000000
   88       -0.915042   1.000000
   89       -0.793859   1.000000
   90       -0.554167   1.000000
   91       -0.522789   1.000000
   92       -0.137903   0.975375
   93       -0.036767   0.285102
   94       -0.009903   0.112585
   95        0.034028  -0.021947
   96        0.102886  -0.020305
   97        0.114846  -0.015213
   98        0.422592  -0.000000
   99        0.444995  -0.000000
  100        0.489523  -0.000000
  101        0.577425  -0.000000
  102        0.683023  -0.000000
  103        0.708330  -0.000000
  104        0.729570  -0.000000
  105        0.784819  -0.000000
  106        0.990177  -0.000000
  107        1.135964  -0.000000
  108        1.164994  -0.000000
  109        1.250389  -0.000000
  110        1.308543  -0.000000
  111        1.336823  -0.000000
  112        1.362409  -0.000000
  113        1.416126  -0.000000
  114        1.525103  -0.000000
  115        1.552572  -0.000000
  116        1.592768  -0.000000
  117        1.607115  -0.000000
  118        1.717084  -0.000000
  119        1.754132  -0.000000
  120        1.824526  -0.000000

  0.2222222E+00  0.3922785E-15  0.3630220E-15  0.6734007E-02
    1      -13.967827   1.000000
    2      -12.936842   1.000000
    3      -12.574388   1.000000
    4      -11.932605   1.000000
    5      -11.545196   1.000000
    6      -11.295167   1.000000
    7      -11.259022   1.000000
    8      -11.210793   1.000000
    9      -11.157181   1.000000
   10      -10.786630   1.000000
   11      -10.783040   1.000000
   12      -10.506236   1.000000
   13      -10.233839   1.000000
   14      -10.225982   1.000000
   15       -9.808015   1.000000
   16       -9.793278   1.000000
   17       -9.202515   1.000000
   18       -8.948403   1.000000
   19       -8.926628   1.000000
   20       -8.757035   1.000000
   21       -8.702646   1.000000
   22       -8.531033   1.000000
   23       -8.464921   1.000000
   24       -8.272241   1.000000
   25       -8.210086   1.000000
   26       -7.959178   1.000000
   27       -7.760174   1.000000
   28       -7.279664   1.000000
   29       -6.663738   1.000000
   30       -6.582338   1.000000
   31       -6.545148   1.000000
   32       -6.324501   1.000000
   33       -6.130219   1.000000
   34       -6.037968   1.000000
   35       -5.739776   1.000000
   36       -5.688047   1.000000
   37       -5.624434   1.000000
   38       -5.428675   1.000000
   39       -5.403007   1.000000
   40       -5.340162   1.000000
   41       -5.225430   1.000000
   42       -5.108883   1.000000
   43       -5.085839   1.000000
   44       -5.073394   1.000000
   45       -4.955875   1.000000
   46       -4.812540   1.000000
   47       -4.769992   1.000000
   48       -4.699185   1.000000
   49       -4.647904   1.000000
   50       -4.617573   1.000000
   51       -4.546578   1.000000
   52       -4.517841   1.000000
   53       -4.449248   1.000000
   54       -4.382804   1.000000
   55       -4.309719   1.000000
   56       -4.242352   1.000000
   57       -4.227633   1.000000
   58       -4.118134   1.000000
   59       -4.096122   1.000000
   60       -3.936880   1.000000
   61       -3.855012   1.000000
   62       -3.648745   1.000000
   63       -3.574896   1.000000
   64       -3.528146   1.000000
   65       -3.475993   1.000000
   66       -3.464311   1.000000
   67       -3.401787   1.000000
   68       -3.372655   1.000000
   69       -3.330701   1.000000
   70       -3.250923   1.000000
   71       -3.139230   1.000000
   72       -3.030899   1.000000
   73       -2.685413   1.000000
   74       -2.652898   1.000000
   75       -2.622362   1.000000
   76       -2.576792   1.000000
   77       -2.520991   1.000000
   78       -2.418791   1.000000
   79       -2.360984   1.000000
   80       -2.125745   1.000000
   81       -1.885840   1.000000
   82       -1.588532   1.000000
   83       -1.542391   1.000000
   84       -1.427980   1.000000
   85       -1.163290   1.000000
   86       -1.085245   1.000000
   87       -0.986776   1.000000
   88       -0.881917   1.000000
   89       -0.698378   1.000000
   90       -0.669552   1.000000
   91       -0.629240   1.000000
   92       -0.212508   1.027937
   93       -0.024478   0.198277
   94        0.015841   0.012574
   95        0.030773  -0.017619
   96        0.113411  -0.015787
   97        0.285586  -0.000005
   98        0.367051  -0.000000
   99        0.415092  -0.000000
  100        0.440713  -0.000000
  101        0.604233  -0.000000
  102        0.748056  -0.000000
  103        0.764337  -0.000000
  104        0.785825  -0.000000
  105        0.855490  -0.000000
  106        1.071645  -0.000000
  107        1.088662  -0.000000
  108        1.188947  -0.000000
  109        1.289131  -0.000000
  110        1.340182  -0.000000
  111        1.347054  -0.000000
  112        1.427311  -0.000000
  113        1.460608  -0.000000
  114        1.516973  -0.000000
  115        1.550777  -0.000000
  116        1.604666  -0.000000
  117        1.654155  -0.000000
  118        1.715326  -0.000000
  119        1.744729  -0.000000
  120        1.813079  -0.000000

  0.3333333E+00  0.3713828E-15  0.3468587E-15  0.6734007E-02
    1      -13.836891   1.000000
    2      -13.195451   1.000000
    3      -12.459838   1.000000
    4      -11.996132   1.000000
    5      -11.488447   1.000000
    6      -11.315105   1.000000
    7      -11.235064   1.000000
    8      -11.211440   1.000000
    9      -11.088732   1.000000
   10      -10.769045   1.000000
   11      -10.764884   1.000000
   12      -10.635084   1.000000
   13      -10.242285   1.000000
   14      -10.233769   1.000000
   15       -9.744268   1.000000
   16       -9.720101   1.000000
   17       -9.164722   1.000000
   18       -8.949841   1.000000
   19       -8.883886   1.000000
   20       -8.782838   1.000000
   21       -8.748152   1.000000
   22       -8.631381   1.000000
   23       -8.557692   1.000000
   24       -8.368182   1.000000
   25       -8.312167   1.000000
   26       -8.019663   1.000000
   27       -7.715991   1.000000
   28       -7.178486   1.000000
   29       -6.684185   1.000000
   30       -6.586320   1.000000
   31       -6.519561   1.000000
   32       -6.425455   1.000000
   33       -6.057610   1.000000
   34       -5.920441   1.000000
   35       -5.731126   1.000000
   36       -5.577604   1.000000
   37       -5.549969   1.000000
   38       -5.374376   1.000000
   39       -5.319745   1.000000
   40       -5.292943   1.000000
   41       -5.264199   1.000000
   42       -5.142980   1.000000
   43       -5.065881   1.000000
   44       -5.039225   1.000000
   45       -4.933413   1.000000
   46       -4.794879   1.000000
   47       -4.755253   1.000000
   48       -4.654492   1.000000
   49       -4.615609   1.000000
   50       -4.581672   1.000000
   51       -4.536731   1.000000
   52       -4.475000   1.000000
   53       -4.412171   1.000000
   54       -4.350453   1.000000
   55       -4.294915   1.000000
   56       -4.255100   1.000000
   57       -4.168670   1.000000
   58       -4.092590   1.000000
   59       -4.044640   1.000000
   60       -3.990487   1.000000
   61       -3.843094   1.000000
   62       -3.758040   1.000000
   63       -3.594004   1.000000
   64       -3.586006   1.000000
   65       -3.529643   1.000000
   66       -3.458405   1.000000
   67       -3.446548   1.000000
   68       -3.344195   1.000000
   69       -3.331204   1.000000
   70       -3.177410   1.000000
   71       -3.064531   1.000000
   72       -3.004365   1.000000
   73       -2.841925   1.000000
   74       -2.813998   1.000000
   75       -2.686467   1.000000
   76       -2.618102   1.000000
   77       -2.562238   1.000000
   78       -2.490287   1.000000
   79       -2.396047   1.000000
   80       -2.067358   1.000000
   81       -1.954662   1.000000
   82       -1.693887   1.000000
   83       -1.584752   1.000000
   84       -1.279873   1.000000
   85       -1.169332   1.000000
   86       -0.989265   1.000000
   87       -0.936595   1.000000
   88       -0.902494   1.000000
   89       -0.830803   1.000000
   90       -0.689063   1.000000
   91       -0.413789   1.000004
   92       -0.359151   1.000117
   93       -0.027020   0.215235
   94        0.013298   0.019602
   95        0.046550  -0.032487
   96        0.206879  -0.000452
   97        0.239951  -0.000078
   98        0.293004  -0.000003
   99        0.361479  -0.000000
  100        0.549629  -0.000000
  101        0.772442  -0.000000
  102        0.792333  -0.000000
  103        0.810608  -0.000000
  104        0.844555  -0.000000
  105        0.912442  -0.000000
  106        0.962780  -0.000000
  107        1.221834  -0.000000
  108        1.269812  -0.000000
  109        1.310912  -0.000000
  110        1.330439  -0.000000
  111        1.412250  -0.000000
  112        1.445673  -0.000000
  113        1.463727  -0.000000
  114        1.487697  -0.000000
  115        1.587744  -0.000000
  116        1.618936  -0.000000
  117        1.698018  -0.000000
  118        1.727085  -0.000000
  119        1.763019  -0.000000
  120        1.812049  -0.000000

  0.4444444E+00  0.3870091E-15  0.3932070E-15  0.6734007E-02
    1      -13.659471   1.000000
    2      -13.442050   1.000000
    3      -12.311994   1.000000
    4      -12.141650   1.000000
    5      -11.438106   1.000000
    6      -11.331452   1.000000
    7      -11.222524   1.000000
    8      -11.207922   1.000000
    9      -10.977837   1.000000
   10      -10.787028   1.000000
   11      -10.753090   1.000000
   12      -10.744726   1.000000
   13      -10.253499   1.000000
   14      -10.244778   1.000000
   15       -9.687036   1.000000
   16       -9.652624   1.000000
   17       -9.148969   1.000000
   18       -8.995250   1.000000
   19       -8.904629   1.000000
   20       -8.799316   1.000000
   21       -8.749538   1.000000
   22       -8.642894   1.000000
   23       -8.533086   1.000000
   24       -8.424199   1.000000
   25       -8.374967   1.000000
   26       -8.266982   1.000000
   27       -7.417053   1.000000
   28       -7.120526   1.000000
   29       -6.962226   1.000000
   30       -6.565466   1.000000
   31       -6.512325   1.000000
   32       -6.459470   1.000000
   33       -5.976097   1.000000
   34       -5.752109   1.000000
   35       -5.640581   1.000000
   36       -5.560719   1.000000
   37       -5.486478   1.000000
   38       -5.437126   1.000000
   39       -5.378062   1.000000
   40       -5.305554   1.000000
   41       -5.287213   1.000000
   42       -5.083686   1.000000
   43       -5.002428   1.000000
   44       -4.964026   1.000000
   45       -4.865320   1.000000
   46       -4.836276   1.000000
   47       -4.763126   1.000000
   48       -4.661848   1.000000
   49       -4.625558   1.000000
   50       -4.524817   1.000000
   51       -4.490143   1.000000
   52       -4.439510   1.000000
   53       -4.424456   1.000000
   54       -4.368837   1.000000
   55       -4.235688   1.000000
   56       -4.210564   1.000000
   57       -4.179466   1.000000
   58       -4.085320   1.000000
   59       -3.986360   1.000000
   60       -3.957009   1.000000
   61       -3.877062   1.000000
   62       -3.808795   1.000000
   63       -3.716911   1.000000
   64       -3.578871   1.000000
   65       -3.574232   1.000000
   66       -3.436903   1.000000
   67       -3.429967   1.000000
   68       -3.335241   1.000000
   69       -3.328562   1.000000
   70       -3.116539   1.000000
   71       -3.078884   1.000000
   72       -3.000975   1.000000
   73       -2.921466   1.000000
   74       -2.849766   1.000000
   75       -2.788952   1.000000
   76       -2.728536   1.000000
   77       -2.546179   1.000000
   78       -2.475732   1.000000
   79       -2.373157   1.000000
   80       -2.236918   1.000000
   81       -1.797234   1.000000
   82       -1.763221   1.000000
   83       -1.638188   1.000000
   84       -1.354153   1.000000
   85       -1.120911   1.000000
   86       -1.001719   1.000000
   87       -0.950753   1.000000
   88       -0.878231   1.000000
   89       -0.689692   1.000000
   90       -0.619208   1.000000
   91       -0.547039   1.000000
   92       -0.277718   1.004856
   93       -0.045761   0.355267
   94        0.013898   0.017891
   95        0.045642  -0.032011
   96        0.160214  -0.003500
   97        0.189231  -0.001040
   98        0.287555  -0.000004
   99        0.494478  -0.000000
  100        0.524767  -0.000000
  101        0.699674  -0.000000
  102        0.816995  -0.000000
  103        0.835711  -0.000000
  104        0.867605  -0.000000
  105        1.091561  -0.000000
  106        1.142763  -0.000000
  107        1.212263  -0.000000
  108        1.311446  -0.000000
  109        1.343293  -0.000000
  110        1.394387  -0.000000
  111        1.432742  -0.000000
  112        1.451742  -0.000000
  113        1.470913  -0.000000
  114        1.499066  -0.000000
  115        1.513772  -0.000000
  116        1.592752  -0.000000
  117        1.614385  -0.000000
  118        1.705172  -0.000000
  119        1.737540  -0.000000
  120        1.780909  -0.000000

  0.3742002E-15  0.9090909E-01  0.3596334E-15  0.6734007E-02
    1      -14.041898   1.000000
    2      -12.642457   1.000000
    3      -12.591584   1.000000
    4      -12.008008   1.000000
    5      -11.579222   1.000000
    6      -11.456131   1.000000
    7      -11.412891   1.000000
    8      -11.257126   1.000000
    9      -11.089047   1.000000
   10      -10.791724   1.000000
   11      -10.773051   1.000000
   12      -10.401484   1.000000
   13      -10.191041   1.000000
   14      -10.181115   1.000000
   15       -9.872032   1.000000
   16       -9.830192   1.000000
   17       -9.245255   1.000000
   18       -9.090484   1.000000
   19       -9.028168   1.000000
   20       -8.750342   1.000000
   21       -8.664526   1.000000
   22       -8.216756   1.000000
   23       -8.137893   1.000000
   24       -8.097945   1.000000
   25       -8.025795   1.000000
   26       -7.969177   1.000000
   27       -7.494007   1.000000
   28       -7.288782   1.000000
   29       -6.834096   1.000000
   30       -6.702731   1.000000
   31       -6.643172   1.000000
   32       -6.375117   1.000000
   33       -6.173499   1.000000
   34       -5.992471   1.000000
   35       -5.768748   1.000000
   36       -5.705694   1.000000
   37       -5.589518   1.000000
   38       -5.556757   1.000000
   39       -5.493489   1.000000
   40       -5.364961   1.000000
   41       -5.320195   1.000000
   42       -5.202138   1.000000
   43       -5.165995   1.000000
   44       -5.119701   1.000000
   45       -4.984572   1.000000
   46       -4.923702   1.000000
   47       -4.859871   1.000000
   48       -4.720423   1.000000
   49       -4.705376   1.000000
   50       -4.680497   1.000000
   51       -4.581938   1.000000
   52       -4.565908   1.000000
   53       -4.524476   1.000000
   54       -4.444248   1.000000
   55       -4.357449   1.000000
   56       -4.264084   1.000000
   57       -4.144807   1.000000
   58       -4.135131   1.000000
   59       -4.049683   1.000000
   60       -4.011695   1.000000
   61       -3.714876   1.000000
   62       -3.610150   1.000000
   63       -3.584180   1.000000
   64       -3.562462   1.000000
   65       -3.492716   1.000000
   66       -3.476309   1.000000
   67       -3.405398   1.000000
   68       -3.338685   1.000000
   69       -3.310192   1.000000
   70       -3.252287   1.000000
   71       -3.199109   1.000000
   72       -2.975154   1.000000
   73       -2.752991   1.000000
   74       -2.518278   1.000000
   75       -2.480531   1.000000
   76       -2.444668   1.000000
   77       -2.417391   1.000000
   78       -2.345296   1.000000
   79       -2.247535   1.000000
   80       -2.149301   1.000000
   81       -1.933885   1.000000
   82       -1.626975   1.000000
   83       -1.501276   1.000000
   84       -1.334392   1.000000
   85       -1.305922   1.000000
   86       -1.176572   1.000000
   87       -1.123202   1.000000
   88       -1.077426   1.000000
   89       -0.716052   1.000000
   90       -0.590491   1.000000
   91       -0.433409   1.000001
   92       -0.280134   1.004447
   93       -0.190882   1.035062
   94       -0.137228   0.973303
   95        0.057341  -0.035396
   96        0.093558  -0.024589
   97        0.145527  -0.005980
   98        0.295355  -0.000002
   99        0.339397  -0.000000
  100        0.469218  -0.000000
  101        0.663160  -0.000000
  102        0.728553  -0.000000
  103        0.753145  -0.000000
  104        0.804383  -0.000000
  105        0.932328  -0.000000
  106        0.971523  -0.000000
  107        1.070453  -0.000000
  108        1.193990  -0.000000
  109        1.210043  -0.000000
  110        1.296865  -0.000000
  111        1.322594  -0.000000
  112        1.369657  -0.000000
  113        1.422992  -0.000000
  114        1.529980  -0.000000
  115        1.553706  -0.000000
  116        1.604803  -0.000000
  117        1.623945  -0.000000
  118        1.671685  -0.000000
  119        1.727301  -0.000000
  120        1.858825  -0.000000

  0.1111111E+00  0.9090909E-01  0.4822234E-15  0.6734007E-02
    1      -13.993120   1.000000
    2      -12.771830   1.000000
    3      -12.597111   1.000000
    4      -11.934706   1.000000
    5      -11.553514   1.000000
    6      -11.501209   1.000000
    7      -11.358794   1.000000
    8      -11.233077   1.000000
    9      -11.145770   1.000000
   10      -10.796692   1.000000
   11      -10.708651   1.000000
   12      -10.438743   1.000000
   13      -10.248047   1.000000
   14      -10.200177   1.000000
   15       -9.822588   1.000000
   16       -9.776807   1.000000
   17       -9.231209   1.000000
   18       -9.102659   1.000000
   19       -8.997442   1.000000
   20       -8.804113   1.000000
   21       -8.686506   1.000000
   22       -8.307007   1.000000
   23       -8.197267   1.000000
   24       -8.054574   1.000000
   25       -8.031033   1.000000
   26       -7.991085   1.000000
   27       -7.639430   1.000000
   28       -7.277748   1.000000
   29       -6.755249   1.000000
   30       -6.682836   1.000000
   31       -6.536374   1.000000
   32       -6.293351   1.000000
   33       -6.171273   1.000000
   34       -6.072712   1.000000
   35       -5.805996   1.000000
   36       -5.629500   1.000000
   37       -5.589059   1.000000
   38       -5.509275   1.000000
   39       -5.468014   1.000000
   40       -5.369175   1.000000
   41       -5.251520   1.000000
   42       -5.214666   1.000000
   43       -5.180251   1.000000
   44       -5.110746   1.000000
   45       -4.943111   1.000000
   46       -4.886175   1.000000
   47       -4.807885   1.000000
   48       -4.695957   1.000000
   49       -4.676294   1.000000
   50       -4.646975   1.000000
   51       -4.593111   1.000000
   52       -4.568221   1.000000
   53       -4.531152   1.000000
   54       -4.434796   1.000000
   55       -4.348955   1.000000
   56       -4.276403   1.000000
   57       -4.150542   1.000000
   58       -4.135074   1.000000
   59       -4.053513   1.000000
   60       -3.976538   1.000000
   61       -3.761067   1.000000
   62       -3.651171   1.000000
   63       -3.612093   1.000000
   64       -3.555997   1.000000
   65       -3.493910   1.000000
   66       -3.476810   1.000000
   67       -3.381108   1.000000
   68       -3.348144   1.000000
   69       -3.280265   1.000000
   70       -3.236027   1.000000
   71       -3.199325   1.000000
   72       -3.042841   1.000000
   73       -2.719187   1.000000
   74       -2.590932   1.000000
   75       -2.557128   1.000000
   76       -2.500522   1.000000
   77       -2.454868   1.000000
   78       -2.386101   1.000000
   79       -2.254612   1.000000
   80       -2.161935   1.000000
   81       -1.920624   1.000000
   82       -1.603099   1.000000
   83       -1.577266   1.000000
   84       -1.419942   1.000000
   85       -1.281544   1.000000
   86       -1.131464   1.000000
   87       -0.994420   1.000000
   88       -0.903086   1.000000
   89       -0.780920   1.000000
   90       -0.679864   1.000000
   91       -0.505413   1.000000
   92       -0.212849   1.027786
   93       -0.187849   1.035384
   94        0.002325   0.056923
   95        0.021771  -0.001591
   96        0.088092  -0.027094
   97        0.106770  -0.018582
   98        0.226505  -0.000165
   99        0.303608  -0.000001
  100        0.611025  -0.000000
  101        0.671994  -0.000000
  102        0.709152  -0.000000
  103        0.782680  -0.000000
  104        0.830806  -0.000000
  105        0.923655  -0.000000
  106        0.978321  -0.000000
  107        1.155144  -0.000000
  108        1.163598  -0.000000
  109        1.219301  -0.000000
  110        1.261388  -0.000000
  111        1.366594  -0.000000
  112        1.418706  -0.000000
  113        1.461627  -0.000000
  114        1.502360  -0.000000
  115        1.578372  -0.000000
  116        1.602776  -0.000000
  117        1.630114  -0.000000
  118        1.674855  -0.000000
  119        1.740664  -0.000000
  120        1.855522  -0.000000

  0.2222222E+00  0.9090909E-01  0.3065600E-15  0.6734007E-02
    1      -13.892206   1.000000
    2      -13.020314   1.000000
    3      -12.507711   1.000000
    4      -11.929192   1.000000
    5      -11.537225   1.000000
    6      -11.504227   1.000000
    7      -11.308861   1.000000
    8      -11.252199   1.000000
    9      -11.124052   1.000000
   10      -10.767210   1.000000
   11      -10.621712   1.000000
   12      -10.535260   1.000000
   13      -10.335676   1.000000
   14      -10.242473   1.000000
   15       -9.736155   1.000000
   16       -9.677244   1.000000
   17       -9.237063   1.000000
   18       -9.078410   1.000000
   19       -9.019948   1.000000
   20       -8.800466   1.000000
   21       -8.757612   1.000000
   22       -8.450249   1.000000
   23       -8.288964   1.000000
   24       -8.127635   1.000000
   25       -8.047603   1.000000
   26       -7.858735   1.000000
   27       -7.829992   1.000000
   28       -7.220697   1.000000
   29       -6.752231   1.000000
   30       -6.578599   1.000000
   31       -6.435114   1.000000
   32       -6.383783   1.000000
   33       -6.147600   1.000000
   34       -6.020359   1.000000
   35       -5.782682   1.000000
   36       -5.676528   1.000000
   37       -5.491879   1.000000
   38       -5.435531   1.000000
   39       -5.388518   1.000000
   40       -5.297727   1.000000
   41       -5.273954   1.000000
   42       -5.220574   1.000000
   43       -5.139513   1.000000
   44       -5.065244   1.000000
   45       -4.940318   1.000000
   46       -4.837439   1.000000
   47       -4.781043   1.000000
   48       -4.699107   1.000000