   59   59    1    1
  0.1289690E+02  0.6088057E-09  0.6088057E-09  0.2372246E-08  0.5000000E-15
   1.0000000000000000E-004
  CAR 
 Name                                    
    205     41    132

  0.3742002E-15  0.3742002E-15  0.1262379E-14  0.1234568E-01
    1      -11.292477   1.000000
    2      -10.890429   1.000000
    3      -10.475784   1.000000
    4       -9.707510   1.000000
    5       -8.487765   1.000000
    6       -8.391439   1.000000
    7       -8.108797   1.000000
    8       -7.930390   1.000000
    9       -7.824136   1.000000
   10       -7.685814   1.000000
   11       -7.658143   1.000000
   12       -7.516500   1.000000
   13       -7.504996   1.000000
   14       -7.419054   1.000000
   15       -7.390597   1.000000
   16       -7.352422   1.000000
   17       -7.148068   1.000000
   18       -7.107491   1.000000
   19       -7.075913   1.000000
   20       -7.042784   1.000000
   21       -6.749764   1.000000
   22       -6.689436   1.000000
   23       -6.569832   1.000000
   24       -6.154296   1.000000
   25       -5.846780   1.000000
   26       -5.822005   1.000000
   27       -5.770573   1.000000
   28       -5.671835   1.000000
   29       -5.645542   1.000000
   30       -5.632638   1.000000
   31       -5.285146   1.000000
   32       -4.744810   1.000000
   33       -4.481258   1.000000
   34       -4.372916   1.000000
   35       -4.338260   1.000000
   36       -4.308261   1.000000
   37       -4.208933   1.000000
   38       -3.369741   1.000000
   39       -3.272429   1.000000
   40       -2.911596   1.000000
   41       -2.848718   1.000000
   42       -2.691210   1.000000
   43       -2.531543   1.000000
   44       -2.486948   1.000000
   45       -2.341036   1.000000
   46       -2.262729   1.000000
   47       -2.197636   1.000000
   48       -2.128877   1.000000
   49       -2.113443   1.000000
   50       -1.975573   1.000000
   51       -1.847367   1.000000
   52       -1.797734   1.000000
   53       -1.752937   1.000000
   54       -1.650493   1.000000
   55       -1.619655   1.000000
   56       -1.538708   1.000000
   57       -1.520296   1.000000
   58       -1.497224   1.000000
   59       -1.422536   1.000000
   60       -1.393544   1.000000
   61       -1.377929   1.000000
   62       -1.228576   1.000000
   63       -1.198355   1.000000
   64       -1.028341   1.000000
   65       -0.989909   1.000000
   66       -0.956423   1.000000
   67       -0.902830   1.000000
   68       -0.826337   1.000000
   69       -0.776070   1.000000
   70       -0.583469   1.000000
   71       -0.533746   1.000000
   72       -0.521392   1.000000
   73       -0.429094   1.000000
   74       -0.374894   1.000000
   75       -0.341429   1.000000
   76       -0.314715   1.000000
   77       -0.113307   1.000000
   78        0.085558   1.000000
   79        0.125326   1.000000
   80        0.189538   1.000000
   81        0.199070   1.000000
   82        0.446650   1.000000
   83        0.577584   1.000000
   84        0.778518   1.000000
   85        0.870198   1.000000
   86        1.004146   1.000000
   87        1.340358   1.000000
   88        1.427129   1.000000
   89        1.433447   1.000000
   90        1.464589   1.000000
   91        1.616414   1.000000
   92        1.667133   1.000000
   93        1.674304   1.000000
   94        1.790713   1.000000
   95        1.865538   1.000000
   96        1.869081   1.000000
   97        1.898641   1.000000
   98        2.042222   1.000000
   99        2.399020   1.000249
  100        2.929896   0.636663
  101        2.947986   0.561978
  102        3.016548   0.280963
  103        3.026523   0.244501
  104        3.204125  -0.035410
  105        3.233110  -0.033367
  106        3.351281  -0.009569
  107        3.465883  -0.001078
  108        3.527607  -0.000241
  109        3.780532  -0.000000
  110        3.849643  -0.000000
  111        3.911904  -0.000000
  112        3.921069  -0.000000
  113        4.031973  -0.000000
  114        4.128110  -0.000000
  115        4.145950  -0.000000
  116        4.173247  -0.000000
  117        4.223258  -0.000000
  118        4.256875  -0.000000
  119        4.289514  -0.000000
  120        4.319268  -0.000000
  121        4.467314  -0.000000
  122        4.522279  -0.000000
  123        4.554412  -0.000000
  124        4.605323  -0.000000
  125        4.657337  -0.000000
  126        4.745285  -0.000000
  127        4.937604  -0.000000
  128        5.154634  -0.000000
  129        5.717529  -0.000000
  130        6.072197  -0.000000
  131        6.239673  -0.000000
  132        6.390565  -0.000000

  0.1111111E+00  0.3857958E-15  0.1262379E-14  0.2469136E-01
    1      -11.235753   1.000000
    2      -10.845028   1.000000
    3      -10.433386   1.000000
    4       -9.675608   1.000000
    5       -8.452481   1.000000
    6       -8.407649   1.000000
    7       -8.186703   1.000000
    8       -8.111801   1.000000
    9       -7.998373   1.000000
   10       -7.848646   1.000000
   11       -7.753035   1.000000
   12       -7.730352   1.000000
   13       -7.690864   1.000000
   14       -7.651082   1.000000
   15       -7.548088   1.000000
   16       -7.488775   1.000000
   17       -7.164538   1.000000
   18       -6.912306   1.000000
   19       -6.857936   1.000000
   20       -6.643052   1.000000
   21       -6.570063   1.000000
   22       -6.495556   1.000000
   23       -6.328382   1.000000
   24       -6.016365   1.000000
   25       -5.860510   1.000000
   26       -5.838628   1.000000
   27       -5.749526   1.000000
   28       -5.630926   1.000000
   29       -5.580315   1.000000
   30       -5.472921   1.000000
   31       -5.208661   1.000000
   32       -4.614502   1.000000
   33       -4.382381   1.000000
   34       -4.308809   1.000000
   35       -4.288641   1.000000
   36       -4.172304   1.000000
   37       -4.102377   1.000000
   38       -3.340116   1.000000
   39       -3.231686   1.000000
   40       -2.943049   1.000000
   41       -2.888457   1.000000
   42       -2.675832   1.000000
   43       -2.623019   1.000000
   44       -2.503518   1.000000
   45       -2.394054   1.000000
   46       -2.372293   1.000000
   47       -2.298861   1.000000
   48       -2.181128   1.000000
   49       -2.144163   1.000000
   50       -2.064050   1.000000
   51       -1.958517   1.000000
   52       -1.853024   1.000000
   53       -1.693073   1.000000
   54       -1.643120   1.000000
   55       -1.620524   1.000000
   56       -1.575225   1.000000
   57       -1.510482   1.000000
   58       -1.485780   1.000000
   59       -1.441980   1.000000
   60       -1.406986   1.000000
   61       -1.375256   1.000000
   62       -1.276240   1.000000
   63       -1.191779   1.000000
   64       -1.053422   1.000000
   65       -1.032869   1.000000
   66       -0.987798   1.000000
   67       -0.947675   1.000000
   68       -0.832694   1.000000
   69       -0.807411   1.000000
   70       -0.698009   1.000000
   71       -0.635123   1.000000
   72       -0.532982   1.000000
   73       -0.444210   1.000000
   74       -0.425500   1.000000
   75       -0.345163   1.000000
   76       -0.251526   1.000000
   77       -0.133516   1.000000
   78        0.026057   1.000000
   79        0.099621   1.000000
   80        0.181802   1.000000
   81        0.213015   1.000000
   82        0.366903   1.000000
   83        0.426840   1.000000
   84        0.581496   1.000000
   85        0.866070   1.000000
   86        0.937464   1.000000
   87        1.179384   1.000000
   88        1.195794   1.000000
   89        1.345197   1.000000
   90        1.381220   1.000000
   91        1.518307   1.000000
   92        1.671079   1.000000
   93        1.701717   1.000000
   94        1.736571   1.000000
   95        1.814628   1.000000
   96        1.917891   1.000000
   97        2.019754   1.000000
   98        2.229893   1.000001
   99        2.611487   1.016180
  100        2.801851   0.991096
  101        2.911395   0.709286
  102        3.049749   0.167442
  103        3.059569   0.138556
  104        3.128533   0.002836
  105        3.182338  -0.032551
  106        3.468255  -0.001021
  107        3.562987  -0.000093
  108        3.661788  -0.000004
  109        3.766227  -0.000000
  110        3.830312  -0.000000
  111        3.902817  -0.000000
  112        3.923027  -0.000000
  113        4.004245  -0.000000
  114        4.070900  -0.000000
  115        4.087806  -0.000000
  116        4.152650  -0.000000
  117        4.157397  -0.000000
  118        4.202355  -0.000000
  119        4.217396  -0.000000
  120        4.264704  -0.000000
  121        4.305029  -0.000000
  122        4.413699  -0.000000
  123        4.415678  -0.000000
  124        4.528421  -0.000000
  125        4.558486  -0.000000
  126        4.695022  -0.000000
  127        4.691835  -0.000000
  128        4.963101  -0.000000
  129        5.816585  -0.000000
  130        6.112175  -0.000000
  131        6.274356  -0.000000
  132        6.433508  -0.000000

  0.2222222E+00  0.3935346E-15  0.1262379E-14  0.2469136E-01
    1      -11.068373   1.000000
    2      -10.715380   1.000000
    3      -10.308551   1.000000
    4       -9.582713   1.000000
    5       -8.722993   1.000000
    6       -8.515130   1.000000
    7       -8.480391   1.000000
    8       -8.374984   1.000000
    9       -8.329766   1.000000
   10       -8.005569   1.000000
   11       -7.942073   1.000000
   12       -7.904993   1.000000
   13       -7.809691   1.000000
   14       -7.761262   1.000000
   15       -7.725287   1.000000
   16       -7.694980   1.000000
   17       -7.286690   1.000000
   18       -6.823140   1.000000
   19       -6.519645   1.000000
   20       -6.500673   1.000000
   21       -6.257738   1.000000
   22       -6.208915   1.000000
   23       -5.816926   1.000000
   24       -5.773555   1.000000
   25       -5.647010   1.000000
   26       -5.627849   1.000000
   27       -5.537110   1.000000
   28       -5.474103   1.000000
   29       -5.398741   1.000000
   30       -5.046584   1.000000
   31       -4.960706   1.000000
   32       -4.424111   1.000000
   33       -4.180609   1.000000
   34       -4.170783   1.000000
   35       -4.046789   1.000000
   36       -3.999799   1.000000
   37       -3.609967   1.000000
   38       -3.276534   1.000000
   39       -3.142013   1.000000
   40       -3.086576   1.000000
   41       -2.988537   1.000000
   42       -2.918485   1.000000
   43       -2.845562   1.000000
   44       -2.802731   1.000000
   45       -2.618064   1.000000
   46       -2.579036   1.000000
   47       -2.394596   1.000000
   48       -2.267304   1.000000
   49       -2.167909   1.000000
   50       -2.082349   1.000000
   51       -1.966319   1.000000
   52       -1.879545   1.000000
   53       -1.815545   1.000000
   54       -1.781069   1.000000
   55       -1.676424   1.000000
   56       -1.655094   1.000000
   57       -1.562052   1.000000
   58       -1.546583   1.000000
   59       -1.464230   1.000000
   60       -1.436454   1.000000
   61       -1.411186   1.000000
   62       -1.328147   1.000000
   63       -1.221851   1.000000
   64       -1.178996   1.000000
   65       -1.124551   1.000000
   66       -1.076832   1.000000
   67       -1.028637   1.000000
   68       -0.969314   1.000000
   69       -0.902313   1.000000
   70       -0.798717   1.000000
   71       -0.720656   1.000000
   72       -0.673193   1.000000
   73       -0.633936   1.000000
   74       -0.480291   1.000000
   75       -0.419533   1.000000
   76       -0.264912   1.000000
   77       -0.194564   1.000000
   78       -0.099478   1.000000
   79        0.013869   1.000000
   80        0.081086   1.000000
   81        0.166843   1.000000
   82        0.216645   1.000000
   83        0.441047   1.000000
   84        0.509876   1.000000
   85        0.655530   1.000000
   86        0.803046   1.000000
   87        0.936091   1.000000
   88        1.044322   1.000000
   89        1.151886   1.000000
   90        1.265023   1.000000
   91        1.448148   1.000000
   92        1.478719   1.000000
   93        1.623179   1.000000
   94        1.657349   1.000000
   95        1.813905   1.000000
   96        1.961775   1.000000
   97        2.103220   1.000000
   98        2.227008   1.000001
   99        2.534799   1.004967
  100        2.683128   1.031854
  101        2.929342   0.638905
  102        3.005421   0.323637
  103        3.216313  -0.035184
  104        3.300943  -0.018927
  105        3.393005  -0.004752
  106        3.513214  -0.000348
  107        3.590731  -0.000042
  108        3.619499  -0.000017
  109        3.680537  -0.000002
  110        3.721420  -0.000001
  111        3.767519  -0.000000
  112        3.791851  -0.000000
  113        3.893108  -0.000000
  114        3.997805  -0.000000
  115        4.011879  -0.000000
  116        4.064347  -0.000000
  117        4.099908  -0.000000
  118        4.121142  -0.000000
  119        4.154002  -0.000000
  120        4.212478  -0.000000
  121        4.255581  -0.000000
  122        4.330778  -0.000000
  123        4.416122  -0.000000
  124        4.453665  -0.000000
  125        4.489770  -0.000000
  126        4.593208  -0.000000
  127        4.693205  -0.000000
  128        4.797891  -0.000000
  129        5.081081  -0.000000
  130        5.286966  -0.000000
  131        6.268933  -0.000000
  132        6.502419  -0.000000

  0.3333333E+00  0.3939838E-15  0.1262379E-14  0.2469136E-01
    1      -10.801951   1.000000
    2      -10.526521   1.000000
    3      -10.107065   1.000000
    4       -9.442605   1.000000
    5       -9.321122   1.000000
    6       -8.996771   1.000000
    7       -8.742744   1.000000
    8       -8.598076   1.000000
    9       -8.163576   1.000000
   10       -8.108836   1.000000
   11       -8.069704   1.000000
   12       -8.059088   1.000000
   13       -7.924670   1.000000
   14       -7.856381   1.000000
   15       -7.783487   1.000000
   16       -7.746953   1.000000
   17       -7.412329   1.000000
   18       -7.192285   1.000000
   19       -6.347529   1.000000
   20       -6.290555   1.000000
   21       -5.828592   1.000000
   22       -5.763919   1.000000
   23       -5.677456   1.000000
   24       -5.590102   1.000000
   25       -5.562009   1.000000
   26       -5.363753   1.000000
   27       -5.210661   1.000000
   28       -4.888290   1.000000
   29       -4.757897   1.000000
   30       -4.661048   1.000000
   31       -4.410996   1.000000
   32       -4.239663   1.000000
   33       -3.957327   1.000000
   34       -3.889007   1.000000
   35       -3.846942   1.000000
   36       -3.622684   1.000000
   37       -3.481523   1.000000
   38       -3.380835   1.000000
   39       -3.344650   1.000000
   40       -3.314581   1.000000
   41       -3.245422   1.000000
   42       -3.193773   1.000000
   43       -3.087079   1.000000
   44       -2.926458   1.000000
   45       -2.823136   1.000000
   46       -2.562046   1.000000
   47       -2.496361   1.000000
   48       -2.369043   1.000000
   49       -2.263906   1.000000
   50       -2.184736   1.000000
   51       -2.101520   1.000000
   52       -2.029657   1.000000
   53       -1.950190   1.000000
   54       -1.856177   1.000000
   55       -1.789453   1.000000
   56       -1.748497   1.000000
   57       -1.731199   1.000000
   58       -1.671014   1.000000
   59       -1.627107   1.000000
   60       -1.552721   1.000000
   61       -1.508104   1.000000
   62       -1.398358   1.000000
   63       -1.347290   1.000000
   64       -1.281223   1.000000
   65       -1.217104   1.000000
   66       -1.156008   1.000000
   67       -1.147741   1.000000
   68       -1.061489   1.000000
   69       -0.960538   1.000000
   70       -0.895226   1.000000
   71       -0.830576   1.000000
   72       -0.764944   1.000000
   73       -0.708723   1.000000
   74       -0.568683   1.000000
   75       -0.463619   1.000000
   76       -0.321541   1.000000
   77       -0.311774   1.000000
   78       -0.216688   1.000000
   79       -0.107527   1.000000
   80        0.023619   1.000000
   81        0.087700   1.000000
   82        0.208686   1.000000
   83        0.266578   1.000000
   84        0.507711   1.000000
   85        0.595645   1.000000
   86        0.698838   1.000000
   87        0.935359   1.000000
   88        1.060461   1.000000
   89        1.111798   1.000000
   90        1.251503   1.000000
   91        1.316192   1.000000
   92        1.337017   1.000000
   93        1.492838   1.000000
   94        1.594878   1.000000
   95        1.704354   1.000000
   96        1.810697   1.000000
   97        1.988867   1.000000
   98        2.413348   1.000359
   99        2.456312   1.001003
  100        2.511999   1.003243
  101        2.858744   0.880706
  102        2.986950   0.398127
  103        3.048989   0.169773
  104        3.115334   0.019951
  105        3.257615  -0.028764
  106        3.362650  -0.007998
  107        3.410665  -0.003416
  108        3.495772  -0.000536
  109        3.562947  -0.000093
  110        3.604741  -0.000027
  111        3.674125  -0.000003
  112        3.694791  -0.000001
  113        3.822274  -0.000000
  114        3.895917  -0.000000
  115        3.957914  -0.000000
  116        3.992855  -0.000000
  117        4.081761  -0.000000
  118        4.113143  -0.000000
  119        4.133149  -0.000000
  120        4.246769  -0.000000
  121        4.300262  -0.000000
  122        4.360731  -0.000000
  123        4.384156  -0.000000
  124        4.456833  -0.000000
  125        4.536571  -0.000000
  126        4.576023  -0.000000
  127        4.735931  -0.000000
  128        4.866854  -0.000000
  129        4.952483  -0.000000
  130        5.135949  -0.000000
  131        5.365018  -0.000000
  132        5.918420  -0.000000

  0.4444444E+00  0.3881204E-15  0.1262379E-14  0.2469136E-01
    1      -10.504522   1.000000
    2      -10.317124   1.000000
    3       -9.868735   1.000000
    4       -9.812081   1.000000
    5       -9.452035   1.000000
    6       -9.240350   1.000000
    7       -9.018784   1.000000
    8       -8.768720   1.000000
    9       -8.153740   1.000000
   10       -8.148301   1.000000
   11       -8.125642   1.000000
   12       -7.989821   1.000000
   13       -7.925823   1.000000
   14       -7.893416   1.000000
   15       -7.810746   1.000000
   16       -7.741564   1.000000
   17       -7.569084   1.000000
   18       -7.483272   1.000000
   19       -6.305048   1.000000
   20       -6.185800   1.000000
   21       -5.636333   1.000000
   22       -5.509896   1.000000
   23       -5.431610   1.000000
   24       -5.391946   1.000000
   25       -5.337353   1.000000
   26       -5.267669   1.000000
   27       -4.878881   1.000000
   28       -4.525275   1.000000
   29       -4.246892   1.000000
   30       -4.053717   1.000000
   31       -3.964533   1.000000
   32       -3.935405   1.000000
   33       -3.866410   1.000000
   34       -3.796969   1.000000
   35       -3.755530   1.000000
   36       -3.682956   1.000000
   37       -3.629973   1.000000
   38       -3.586463   1.000000
   39       -3.543816   1.000000
   40       -3.488436   1.000000
   41       -3.393791   1.000000
   42       -3.297528   1.000000
   43       -3.187473   1.000000
   44       -3.074174   1.000000
   45       -3.028563   1.000000
   46       -2.793207   1.000000
   47       -2.544397   1.000000
   48       -2.456405   1.000000
   49       -2.327070   1.000000
   50       -2.252798   1.000000
   51       -2.205059   1.000000
   52       -2.142945   1.000000
   53       -2.035364   1.000000
   54       -1.979313   1.000000
   55       -1.876839   1.000000
   56       -1.837319   1.000000
   57       -1.776212   1.000000
   58       -1.714364   1.000000
   59       -1.699031   1.000000
   60       -1.605337   1.000000
   61       -1.564784   1.000000
   62       -1.498958   1.000000
   63       -1.425131   1.000000
   64       -1.345316   1.000000
   65       -1.265703   1.000000
   66       -1.240744   1.000000
   67       -1.202365   1.000000
   68       -1.108392   1.000000
   69       -1.050792   1.000000
   70       -0.975573   1.000000
   71       -0.868376   1.000000
   72       -0.809876   1.000000
   73       -0.728598   1.000000
   74       -0.601179   1.000000
   75       -0.513789   1.000000
   76       -0.387163   1.000000
   77       -0.372005   1.000000
   78       -0.281721   1.000000
   79       -0.153498   1.000000
   80       -0.065608   1.000000
   81        0.125156   1.000000
   82        0.150437   1.000000
   83        0.305370   1.000000
   84        0.385746   1.000000
   85        0.585737   1.000000
   86        0.722431   1.000000
   87        0.994209   1.000000
   88        1.027311   1.000000
   89        1.152581   1.000000
   90        1.170349   1.000000
   91        1.295807   1.000000
   92        1.385875   1.000000
   93        1.406351   1.000000
   94        1.571596   1.000000
   95        1.625259   1.000000
   96        1.763223   1.000000
   97        1.994860   1.000000
   98        2.423923   1.000467
   99        2.494232   1.002276
  100        2.536571   1.005127
  101        2.582700   1.010898
  102        2.742225   1.032743
  103        2.836018   0.934396
  104        2.963603   0.496084
  105        3.053361   0.156547
  106        3.180217  -0.031998
  107        3.272470  -0.025426
  108        3.372182  -0.006836
  109        3.462913  -0.001152
  110        3.545444  -0.000150
  111        3.571331  -0.000073
  112        3.646880  -0.000007
  113        3.699647  -0.000001
  114        3.838930  -0.000000
  115        3.862721  -0.000000
  116        3.929430  -0.000000
  117        3.977420  -0.000000
  118        4.090013  -0.000000
  119        4.099294  -0.000000
  120        4.221034  -0.000000
  121        4.338638  -0.000000
  122        4.438184  -0.000000
  123        4.541943  -0.000000
  124        4.567536  -0.000000
  125        4.674589  -0.000000
  126        4.769053  -0.000000
  127        4.893305  -0.000000
  128        5.045296  -0.000000
  129        5.223380  -0.000000
  130        5.223808  -0.000000
  131        5.360981  -0.000000
  132        5.591516  -0.000000

  0.3742002E-15  0.1111111E+00  0.1262379E-14  0.2469136E-01
    1      -11.235642   1.000000
    2      -10.845322   1.000000
    3      -10.434662   1.000000
    4       -9.676894   1.000000
    5       -8.452742   1.000000
    6       -8.408316   1.000000
    7       -8.199229   1.000000
    8       -8.116482   1.000000
    9       -8.013496   1.000000
   10       -7.849272   1.000000
   11       -7.756015   1.000000
   12       -7.730691   1.000000
   13       -7.684101   1.000000
   14       -7.632036   1.000000
   15       -7.521335   1.000000
   16       -7.485186   1.000000
   17       -7.104551   1.000000
   18       -6.908300   1.000000
   19       -6.857391   1.000000
   20       -6.644007   1.000000
   21       -6.572775   1.000000
   22       -6.497540   1.000000
   23       -6.342079   1.000000
   24       -6.116085   1.000000
   25       -5.866799   1.000000
   26       -5.819066   1.000000
   27       -5.754865   1.000000
   28       -5.624584   1.000000
   29       -5.579420   1.000000
   30       -5.475595   1.000000
   31       -5.204068   1.000000
   32       -4.700205   1.000000
   33       -4.354177   1.000000
   34       -4.302026   1.000000
   35       -4.280102   1.000000
   36       -4.183317   1.000000
   37       -4.037627   1.000000
   38       -3.351871   1.000000
   39       -3.225643   1.000000
   40       -2.944511   1.000000
   41       -2.888968   1.000000
   42       -2.679211   1.000000
   43       -2.614240   1.000000
   44       -2.501940   1.000000
   45       -2.389374   1.000000
   46       -2.375121   1.000000
   47       -2.298644   1.000000
   48       -2.164957   1.000000
   49       -2.149192   1.000000
   50       -2.056168   1.000000
   51       -1.953480   1.000000
   52       -1.853631   1.000000
   53       -1.692816   1.000000
   54       -1.648800   1.000000
   55       -1.613345   1.000000
   56       -1.555187   1.000000
   57       -1.518225   1.000000
   58       -1.488164   1.000000
   59       -1.467791   1.000000
   60       -1.389585   1.000000
   61       -1.368494   1.000000
   62       -1.239151   1.000000
   63       -1.191945   1.000000
   64       -1.068367   1.000000
   65       -1.027837   1.000000
   66       -1.004548   1.000000
   67       -0.939689   1.000000
   68       -0.831375   1.000000
   69       -0.805655   1.000000
   70       -0.704079   1.000000
   71       -0.617278   1.000000
   72       -0.536918   1.000000
   73       -0.456090   1.000000
   74       -0.394238   1.000000
   75       -0.345973   1.000000
   76       -0.249787   1.000000
   77       -0.136621   1.000000
   78        0.006335   1.000000
   79        0.078742   1.000000
   80        0.160002   1.000000
   81        0.192490   1.000000
   82        0.317955   1.000000
   83        0.510871   1.000000
   84        0.604816   1.000000
   85        0.812954   1.000000
   86        0.910346   1.000000
   87        1.183291   1.000000
   88        1.201157   1.000000
   89        1.339818   1.000000
   90        1.416721   1.000000
   91        1.494417   1.000000
   92        1.675158   1.000000
   93        1.701392   1.000000
   94        1.740913   1.000000
   95        1.818064   1.000000
   96        1.916722   1.000000
   97        2.024612   1.000000
   98        2.241087   1.000002
   99        2.566145   1.008452
  100        2.856312   0.887075
  101        2.910506   0.712644
  102        3.033395   0.220496
  103        3.056863   0.146284
  104        3.104752   0.036557
  105        3.231090  -0.033659
  106        3.413487  -0.003235
  107        3.556432  -0.000111
  108        3.665074  -0.000004
  109        3.762566  -0.000000
  110        3.831630  -0.000000
  111        3.903095  -0.000000
  112        3.920887  -0.000000
  113        4.007394  -0.000000
  114        4.070481  -0.000000
  115        4.085276  -0.000000
  116        4.143739  -0.000000
  117        4.158124  -0.000000
  118        4.174558  -0.000000
  119        4.231166  -0.000000
  120        4.265036  -0.000000
  121        4.278146  -0.000000
  122        4.347388  -0.000000
  123        4.420300  -0.000000
  124        4.482709  -0.000000
  125        4.541007  -0.000000
  126        4.696713  -0.000000
  127        4.741532  -0.000000
  128        5.100901  -0.000000
  129        5.226895  -0.000000
  130        5.866814  -0.000000
  131        6.070992  -0.000000
  132        6.336183  -0.000000

  0.1111111E+00  0.1111111E+00  0.1262379E-14  0.2469136E-01
    1      -11.122986   1.000000
    2      -10.758716   1.000000
    3      -10.352454   1.000000
    4       -9.614260   1.000000
    5       -8.465743   1.000000
    6       -8.440018   1.000000
    7       -8.381947   1.000000
    8       -8.307138   1.000000
    9       -8.267342   1.000000
   10       -8.217104   1.000000
   11       -8.037523   1.000000
   12       -7.998167   1.000000
   13       -7.804822   1.000000
   14       -7.738044   1.000000
   15       -7.540781   1.000000
   16       -7.168310   1.000000
   17       -7.149417   1.000000
   18       -6.962548   1.000000
   19       -6.668925   1.000000
   20       -6.586724   1.000000
   21       -6.462655   1.000000
   22       -6.110675   1.000000
   23       -6.010145   1.000000
   24       -5.912230   1.000000
   25       -5.788426   1.000000
   26       -5.733197   1.000000
   27       -5.601825   1.000000
   28       -5.588005   1.000000
   29       -5.380357   1.000000
   30       -5.198640   1.000000
   31       -5.060051   1.000000
   32       -4.486004   1.000000
   33       -4.432907   1.000000
   34       -4.168671   1.000000
   35       -4.010572   1.000000
   36       -3.869818   1.000000
   37       -3.843365   1.000000
   38       -3.326075   1.000000
   39       -3.162726   1.000000
   40       -3.060892   1.000000
   41       -3.005638   1.000000
   42       -2.873770   1.000000
   43       -2.845992   1.000000
   44       -2.597649   1.000000
   45       -2.487822   1.000000
   46       -2.384237   1.000000
   47       -2.282042   1.000000
   48       -2.223437   1.000000
   49       -2.179197   1.000000
   50       -2.088945   1.000000
   51       -1.939146   1.000000
   52       -1.894988   1.000000
   53       -1.802354   1.000000
   54       -1.739676   1.000000
   55       -1.638357   1.000000
   56       -1.581343   1.000000
   57       -1.558883   1.000000
   58       -1.511149   1.000000
   59       -1.500084   1.000000
   60       -1.460183   1.000000
   61       -1.362329   1.000000
   62       -1.293220   1.000000
   63       -1.240397   1.000000
   64       -1.120385   1.000000
   65       -1.089498   1.000000
   66       -1.027998   1.000000
   67       -0.980554   1.000000
   68       -0.928766   1.000000
   69       -0.826537   1.000000
   70       -0.797331   1.000000
   71       -0.741896   1.000000
   72       -0.607927   1.000000
   73       -0.515552   1.000000
   74       -0.427118   1.000000
   75       -0.380750   1.000000
   76       -0.359140   1.000000
   77       -0.282605   1.000000
   78       -0.048408   1.000000
   79        0.051653   1.000000
   80        0.097104   1.000000
   81        0.210732   1.000000
   82        0.322028   1.000000
   83        0.346584   1.000000
   84        0.500406   1.000000
   85        0.673832   1.000000
   86        0.784343   1.000000
   87        0.856152   1.000000
   88        1.130437   1.000000
   89        1.251653   1.000000
   90        1.407529   1.000000
   91        1.496151   1.000000
   92        1.557116   1.000000
   93        1.604525   1.000000
   94        1.656157   1.000000
   95        1.739136   1.000000
   96        1.793438   1.000000
   97        2.142707   1.000000
   98        2.328275   1.000035