   70   70    1    1
  0.2230945E+02  0.1053953E-08  0.6141200E-09  0.2412750E-08  0.5000000E-15
   1.0000000000000000E-004
  CAR 
 Name                                    
    265     23    168

  0.3742002E-15  0.3742002E-15  0.1262379E-14  0.2222222E-01
    1      -13.951399   1.000000
    2      -12.859567   1.000000
    3      -12.673821   1.000000
    4      -12.515442   1.000000
    5      -11.957043   1.000000
    6      -11.702408   1.000000
    7      -11.655655   1.000000
    8      -11.395844   1.000000
    9      -11.382385   1.000000
   10      -11.267488   1.000000
   11      -11.064974   1.000000
   12      -10.996283   1.000000
   13      -10.755708   1.000000
   14      -10.403620   1.000000
   15      -10.206758   1.000000
   16      -10.153141   1.000000
   17      -10.095609   1.000000
   18       -9.966807   1.000000
   19       -9.781831   1.000000
   20       -9.756461   1.000000
   21       -9.532035   1.000000
   22       -9.514329   1.000000
   23       -9.295436   1.000000
   24       -9.234911   1.000000
   25       -8.971470   1.000000
   26       -8.848083   1.000000
   27       -8.477688   1.000000
   28       -8.289817   1.000000
   29       -8.188806   1.000000
   30       -8.177393   1.000000
   31       -7.997348   1.000000
   32       -7.899171   1.000000
   33       -7.623309   1.000000
   34       -7.319545   1.000000
   35       -7.171148   1.000000
   36       -7.107475   1.000000
   37       -7.039936   1.000000
   38       -6.842666   1.000000
   39       -6.748543   1.000000
   40       -6.696334   1.000000
   41       -6.616746   1.000000
   42       -6.565503   1.000000
   43       -6.487198   1.000000
   44       -6.305730   1.000000
   45       -6.259116   1.000000
   46       -6.172245   1.000000
   47       -6.161938   1.000000
   48       -6.045042   1.000000
   49       -5.960179   1.000000
   50       -5.859701   1.000000
   51       -5.701193   1.000000
   52       -5.604075   1.000000
   53       -5.574816   1.000000
   54       -5.534698   1.000000
   55       -5.406844   1.000000
   56       -5.331179   1.000000
   57       -5.252576   1.000000
   58       -5.168971   1.000000
   59       -5.144926   1.000000
   60       -5.117427   1.000000
   61       -5.009500   1.000000
   62       -4.825515   1.000000
   63       -4.797927   1.000000
   64       -4.702096   1.000000
   65       -4.632080   1.000000
   66       -4.621508   1.000000
   67       -4.490308   1.000000
   68       -4.466896   1.000000
   69       -4.454874   1.000000
   70       -4.317277   1.000000
   71       -4.223355   1.000000
   72       -4.166707   1.000000
   73       -4.131904   1.000000
   74       -4.018763   1.000000
   75       -4.015375   1.000000
   76       -3.953421   1.000000
   77       -3.890182   1.000000
   78       -3.852749   1.000000
   79       -3.811139   1.000000
   80       -3.693353   1.000000
   81       -3.673138   1.000000
   82       -3.625113   1.000000
   83       -3.568707   1.000000
   84       -3.503894   1.000000
   85       -3.409985   1.000000
   86       -3.390694   1.000000
   87       -3.346689   1.000000
   88       -3.223647   1.000000
   89       -3.150054   1.000000
   90       -3.073112   1.000000
   91       -3.018422   1.000000
   92       -2.928888   1.000000
   93       -2.881723   1.000000
   94       -2.839070   1.000000
   95       -2.693169   1.000000
   96       -2.594603   1.000000
   97       -2.574802   1.000000
   98       -2.493627   1.000000
   99       -2.480513   1.000000
  100       -2.392432   1.000000
  101       -2.350938   1.000000
  102       -2.332822   1.000000
  103       -2.318516   1.000000
  104       -2.290876   1.000000
  105       -2.206575   1.000000
  106       -2.171577   1.000000
  107       -2.161003   1.000000
  108       -2.085540   1.000000
  109       -1.959191   1.000000
  110       -1.904610   1.000000
  111       -1.881641   1.000000
  112       -1.802250   1.000000
  113       -1.732578   1.000000
  114       -1.617310   1.000000
  115       -1.571945   1.000000
  116       -1.494942   1.000000
  117       -1.397471   1.000000
  118       -1.242448   1.000000
  119       -1.169009   1.000000
  120       -1.163646   1.000000
  121       -1.049009   1.000000
  122       -0.940541   1.000000
  123       -0.809365   1.000000
  124       -0.646495   1.000002
  125       -0.581483   1.000019
  126       -0.479302   1.000334
  127       -0.443554   1.000797
  128       -0.335004   1.007029
  129       -0.198665   1.033206
  130       -0.162218   1.035054
  131       -0.037857   0.898034
  132        0.017919   0.722939
  133        0.035253   0.655947
  134        0.140354   0.231547
  135        0.176565   0.119829
  136        0.230905   0.012462
  137        0.247760  -0.006754
  138        0.365119  -0.029332
  139        0.373142  -0.027583
  140        0.549618  -0.001915
  141        0.618961  -0.000389
  142        0.652646  -0.000162
  143        0.717876  -0.000025
  144        0.746549  -0.000010
  145        0.867778  -0.000000
  146        0.926878  -0.000000
  147        0.959933  -0.000000
  148        0.999694  -0.000000
  149        1.036944  -0.000000
  150        1.090711  -0.000000
  151        1.124367  -0.000000
  152        1.179673  -0.000000
  153        1.214159  -0.000000
  154        1.231561  -0.000000
  155        1.262323  -0.000000
  156        1.366644  -0.000000
  157        1.387266  -0.000000
  158        1.418059  -0.000000
  159        1.443778  -0.000000
  160        1.499250  -0.000000
  161        1.546479  -0.000000
  162        1.650460  -0.000000
  163        1.703649  -0.000000
  164        1.760564  -0.000000
  165        1.889519  -0.000000
  166        1.988506  -0.000000
  167        2.498344  -0.000000
  168        3.067614  -0.000000

  0.2000000E+00  0.3742002E-15  0.1262379E-14  0.4444444E-01
    1      -13.924922   1.000000
    2      -13.005721   1.000000
    3      -12.755077   1.000000
    4      -12.200488   1.000000
    5      -12.005925   1.000000
    6      -11.955390   1.000000
    7      -11.440249   1.000000
    8      -11.382122   1.000000
    9      -11.248930   1.000000
   10      -11.207300   1.000000
   11      -11.029851   1.000000
   12      -10.995472   1.000000
   13      -10.732411   1.000000
   14      -10.542554   1.000000
   15      -10.450687   1.000000
   16      -10.221127   1.000000
   17      -10.183584   1.000000
   18       -9.984683   1.000000
   19       -9.786815   1.000000
   20       -9.714438   1.000000
   21       -9.543731   1.000000
   22       -9.523720   1.000000
   23       -9.278105   1.000000
   24       -9.211741   1.000000
   25       -8.941798   1.000000
   26       -8.682922   1.000000
   27       -8.405482   1.000000
   28       -8.193569   1.000000
   29       -8.148390   1.000000
   30       -8.076895   1.000000
   31       -8.010689   1.000000
   32       -7.935657   1.000000
   33       -7.529307   1.000000
   34       -7.398783   1.000000
   35       -7.283345   1.000000
   36       -7.156924   1.000000
   37       -7.056169   1.000000
   38       -6.917764   1.000000
   39       -6.827881   1.000000
   40       -6.745424   1.000000
   41       -6.649993   1.000000
   42       -6.617174   1.000000
   43       -6.511242   1.000000
   44       -6.420116   1.000000
   45       -6.288343   1.000000
   46       -6.232140   1.000000
   47       -5.994693   1.000000
   48       -5.957566   1.000000
   49       -5.910305   1.000000
   50       -5.872447   1.000000
   51       -5.731922   1.000000
   52       -5.579971   1.000000
   53       -5.511723   1.000000
   54       -5.488031   1.000000
   55       -5.431997   1.000000
   56       -5.330469   1.000000
   57       -5.229957   1.000000
   58       -5.148367   1.000000
   59       -5.106351   1.000000
   60       -4.994582   1.000000
   61       -4.978811   1.000000
   62       -4.962946   1.000000
   63       -4.761147   1.000000
   64       -4.692086   1.000000
   65       -4.655255   1.000000
   66       -4.555160   1.000000
   67       -4.487094   1.000000
   68       -4.457561   1.000000
   69       -4.424112   1.000000
   70       -4.280309   1.000000
   71       -4.179711   1.000000
   72       -4.154860   1.000000
   73       -4.147213   1.000000
   74       -4.054474   1.000000
   75       -4.016301   1.000000
   76       -4.010234   1.000000
   77       -3.923610   1.000000
   78       -3.865871   1.000000
   79       -3.813989   1.000000
   80       -3.756618   1.000000
   81       -3.726096   1.000000
   82       -3.649744   1.000000
   83       -3.565426   1.000000
   84       -3.502697   1.000000
   85       -3.473208   1.000000
   86       -3.352784   1.000000
   87       -3.326375   1.000000
   88       -3.227633   1.000000
   89       -3.148436   1.000000
   90       -3.102520   1.000000
   91       -3.007498   1.000000
   92       -2.914899   1.000000
   93       -2.869147   1.000000
   94       -2.844560   1.000000
   95       -2.727679   1.000000
   96       -2.653902   1.000000
   97       -2.599628   1.000000
   98       -2.532654   1.000000
   99       -2.469284   1.000000
  100       -2.458467   1.000000
  101       -2.381248   1.000000
  102       -2.352309   1.000000
  103       -2.310210   1.000000
  104       -2.228392   1.000000
  105       -2.164977   1.000000
  106       -2.124813   1.000000
  107       -2.081694   1.000000
  108       -2.006227   1.000000
  109       -1.942899   1.000000
  110       -1.880057   1.000000
  111       -1.807802   1.000000
  112       -1.735064   1.000000
  113       -1.710428   1.000000
  114       -1.592269   1.000000
  115       -1.553601   1.000000
  116       -1.475331   1.000000
  117       -1.368946   1.000000
  118       -1.241704   1.000000
  119       -1.170264   1.000000
  120       -1.156116   1.000000
  121       -1.121357   1.000000
  122       -0.950357   1.000000
  123       -0.882276   1.000000
  124       -0.680973   1.000001
  125       -0.643332   1.000003
  126       -0.545399   1.000056
  127       -0.515747   1.000128
  128       -0.438519   1.000895
  129       -0.251656   1.022031
  130       -0.194132   1.033857
  131       -0.077198   0.976176
  132       -0.040190   0.903749
  133        0.079586   0.471449
  134        0.104412   0.368214
  135        0.123585   0.292730
  136        0.226763   0.018131
  137        0.304799  -0.034749
  138        0.397686  -0.021948
  139        0.471367  -0.008186
  140        0.546505  -0.002043
  141        0.614693  -0.000432
  142        0.626514  -0.000321
  143        0.704739  -0.000037
  144        0.804975  -0.000001
  145        0.902359  -0.000000
  146        0.913614  -0.000000
  147        0.969479  -0.000000
  148        1.016637  -0.000000
  149        1.030349  -0.000000
  150        1.122063  -0.000000
  151        1.174609  -0.000000
  152        1.208228  -0.000000
  153        1.229630  -0.000000
  154        1.306523  -0.000000
  155        1.358214  -0.000000
  156        1.383056  -0.000000
  157        1.405378  -0.000000
  158        1.440378  -0.000000
  159        1.509756  -0.000000
  160        1.524193  -0.000000
  161        1.576082  -0.000000
  162        1.593084  -0.000000
  163        1.670714  -0.000000
  164        1.704543  -0.000000
  165        1.919248  -0.000000
  166        1.991451  -0.000000
  167        2.114609  -0.000000
  168        2.418889  -0.000000

  0.4000000E+00  0.3742002E-15  0.1262379E-14  0.4444444E-01
    1      -13.872130   1.000000
    2      -13.210045   1.000000
    3      -12.662783   1.000000
    4      -12.341220   1.000000
    5      -11.953059   1.000000
    6      -11.636894   1.000000
    7      -11.482855   1.000000
    8      -11.381960   1.000000
    9      -11.139966   1.000000
   10      -11.108147   1.000000
   11      -10.995648   1.000000
   12      -10.942424   1.000000
   13      -10.720699   1.000000
   14      -10.679936   1.000000
   15      -10.541110   1.000000
   16      -10.509774   1.000000
   17      -10.217050   1.000000
   18      -10.119871   1.000000
   19       -9.983083   1.000000
   20       -9.789750   1.000000
   21       -9.560378   1.000000
   22       -9.279406   1.000000
   23       -9.219927   1.000000
   24       -9.162221   1.000000
   25       -8.888290   1.000000
   26       -8.706242   1.000000
   27       -8.243361   1.000000
   28       -8.068099   1.000000
   29       -8.009058   1.000000
   30       -7.887158   1.000000
   31       -7.870827   1.000000
   32       -7.696482   1.000000
   33       -7.581286   1.000000
   34       -7.561834   1.000000
   35       -7.425734   1.000000
   36       -7.343779   1.000000
   37       -7.239917   1.000000
   38       -7.143056   1.000000
   39       -7.077048   1.000000
   40       -6.811042   1.000000
   41       -6.704555   1.000000
   42       -6.533923   1.000000
   43       -6.507335   1.000000
   44       -6.324067   1.000000
   45       -6.266594   1.000000
   46       -6.176262   1.000000
   47       -6.025612   1.000000
   48       -5.980196   1.000000
   49       -5.902975   1.000000
   50       -5.750706   1.000000
   51       -5.686920   1.000000
   52       -5.651732   1.000000
   53       -5.555839   1.000000
   54       -5.496543   1.000000
   55       -5.429942   1.000000
   56       -5.317463   1.000000
   57       -5.253687   1.000000
   58       -5.103205   1.000000
   59       -4.993012   1.000000
   60       -4.939066   1.000000
   61       -4.881891   1.000000
   62       -4.807210   1.000000
   63       -4.722390   1.000000
   64       -4.706592   1.000000
   65       -4.626519   1.000000
   66       -4.546105   1.000000
   67       -4.488324   1.000000
   68       -4.400102   1.000000
   69       -4.363391   1.000000
   70       -4.322789   1.000000
   71       -4.202975   1.000000
   72       -4.173972   1.000000
   73       -4.138802   1.000000
   74       -4.094142   1.000000
   75       -4.078220   1.000000
   76       -4.003615   1.000000
   77       -3.939717   1.000000
   78       -3.913814   1.000000
   79       -3.872604   1.000000
   80       -3.825126   1.000000
   81       -3.748357   1.000000
   82       -3.637687   1.000000
   83       -3.612286   1.000000
   84       -3.505361   1.000000
   85       -3.465752   1.000000
   86       -3.328252   1.000000
   87       -3.308648   1.000000
   88       -3.268168   1.000000
   89       -3.124381   1.000000
   90       -3.093536   1.000000
   91       -3.057548   1.000000
   92       -3.044264   1.000000
   93       -2.923007   1.000000
   94       -2.820455   1.000000
   95       -2.777447   1.000000
   96       -2.731857   1.000000
   97       -2.592240   1.000000
   98       -2.578620   1.000000
   99       -2.515682   1.000000
  100       -2.496413   1.000000
  101       -2.352835   1.000000
  102       -2.291075   1.000000
  103       -2.225983   1.000000
  104       -2.197714   1.000000
  105       -2.125773   1.000000
  106       -2.075895   1.000000
  107       -2.004629   1.000000
  108       -1.921276   1.000000
  109       -1.886017   1.000000
  110       -1.824515   1.000000
  111       -1.672169   1.000000
  112       -1.660380   1.000000
  113       -1.649923   1.000000
  114       -1.517432   1.000000
  115       -1.501639   1.000000
  116       -1.417744   1.000000
  117       -1.362715   1.000000
  118       -1.266577   1.000000
  119       -1.224763   1.000000
  120       -1.195727   1.000000
  121       -1.109309   1.000000
  122       -1.004944   1.000000
  123       -0.967355   1.000000
  124       -0.775813   1.000000
  125       -0.759949   1.000000
  126       -0.670020   1.000001
  127       -0.629182   1.000004
  128       -0.514325   1.000133
  129       -0.422235   1.001292
  130       -0.290276   1.013841
  131       -0.098041   1.002681
  132       -0.039745   0.902668
  133        0.055209   0.574257
  134        0.090275   0.426512
  135        0.139307   0.235213
  136        0.217061   0.032964
  137        0.329589  -0.034963
  138        0.368946  -0.028509
  139        0.467093  -0.008762
  140        0.573592  -0.001138
  141        0.582339  -0.000934
  142        0.681050  -0.000074
  143        0.778222  -0.000004
  144        0.819578  -0.000001
  145        0.917889  -0.000000
  146        0.940304  -0.000000
  147        1.014371  -0.000000
  148        1.034243  -0.000000
  149        1.153865  -0.000000
  150        1.212421  -0.000000
  151        1.231809  -0.000000
  152        1.290909  -0.000000
  153        1.303022  -0.000000
  154        1.317471  -0.000000
  155        1.391381  -0.000000
  156        1.419011  -0.000000
  157        1.449453  -0.000000
  158        1.507404  -0.000000
  159        1.532553  -0.000000
  160        1.601482  -0.000000
  161        1.642233  -0.000000
  162        1.694564  -0.000000
  163        1.708597  -0.000000
  164        1.756145  -0.000000
  165        1.937046  -0.000000
  166        2.026252  -0.000000
  167        2.248413  -0.000000
  168        2.673104  -0.000000

  0.3742002E-15  0.1111111E+00  0.1262379E-14  0.4444444E-01
    1      -13.905896   1.000000
    2      -12.818939   1.000000
    3      -12.638315   1.000000
    4      -12.484075   1.000000
    5      -12.037538   1.000000
    6      -11.668604   1.000000
    7      -11.631764   1.000000
    8      -11.437696   1.000000
    9      -11.409192   1.000000
   10      -11.307757   1.000000
   11      -11.045653   1.000000
   12      -11.005908   1.000000
   13      -10.786850   1.000000
   14      -10.412716   1.000000
   15      -10.204142   1.000000
   16      -10.153486   1.000000
   17      -10.086047   1.000000
   18       -9.974586   1.000000
   19       -9.781665   1.000000
   20       -9.724766   1.000000
   21       -9.558089   1.000000
   22       -9.513023   1.000000
   23       -9.298898   1.000000
   24       -9.231727   1.000000
   25       -8.991089   1.000000
   26       -8.822855   1.000000
   27       -8.472837   1.000000
   28       -8.289353   1.000000
   29       -8.202614   1.000000
   30       -8.183602   1.000000
   31       -7.914751   1.000000
   32       -7.852114   1.000000
   33       -7.722340   1.000000
   34       -7.357927   1.000000
   35       -7.271741   1.000000
   36       -7.156363   1.000000
   37       -7.018330   1.000000
   38       -6.817287   1.000000
   39       -6.696364   1.000000
   40       -6.666393   1.000000
   41       -6.592343   1.000000
   42       -6.557552   1.000000
   43       -6.446003   1.000000
   44       -6.338289   1.000000
   45       -6.204791   1.000000
   46       -6.172225   1.000000
   47       -6.133738   1.000000
   48       -6.051890   1.000000
   49       -5.994622   1.000000
   50       -5.819726   1.000000
   51       -5.734824   1.000000
   52       -5.654700   1.000000
   53       -5.502446   1.000000
   54       -5.480048   1.000000
   55       -5.410421   1.000000
   56       -5.330220   1.000000
   57       -5.213214   1.000000
   58       -5.170987   1.000000
   59       -5.116228   1.000000
   60       -5.060395   1.000000
   61       -4.976417   1.000000
   62       -4.815838   1.000000
   63       -4.800515   1.000000
   64       -4.724827   1.000000
   65       -4.634214   1.000000
   66       -4.570039   1.000000
   67       -4.509420   1.000000
   68       -4.457754   1.000000
   69       -4.440047   1.000000
   70       -4.347376   1.000000
   71       -4.269569   1.000000
   72       -4.250497   1.000000
   73       -4.072927   1.000000
   74       -4.046069   1.000000
   75       -4.006381   1.000000
   76       -3.968171   1.000000
   77       -3.887913   1.000000
   78       -3.847753   1.000000
   79       -3.816291   1.000000
   80       -3.729186   1.000000
   81       -3.678276   1.000000
   82       -3.643175   1.000000
   83       -3.579114   1.000000
   84       -3.507414   1.000000
   85       -3.407503   1.000000
   86       -3.372097   1.000000
   87       -3.345435   1.000000
   88       -3.265018   1.000000
   89       -3.155656   1.000000
   90       -3.109967   1.000000
   91       -3.051253   1.000000
   92       -3.015242   1.000000
   93       -2.929112   1.000000
   94       -2.856221   1.000000
   95       -2.762777   1.000000
   96       -2.707140   1.000000
   97       -2.567383   1.000000
   98       -2.525914   1.000000
   99       -2.473791   1.000000
  100       -2.432768   1.000000
  101       -2.399755   1.000000
  102       -2.380053   1.000000
  103       -2.308392   1.000000
  104       -2.245717   1.000000
  105       -2.225558   1.000000
  106       -2.185128   1.000000
  107       -2.155016   1.000000
  108       -2.079456   1.000000
  109       -1.931168   1.000000
  110       -1.885085   1.000000
  111       -1.840396   1.000000
  112       -1.785378   1.000000
  113       -1.660062   1.000000
  114       -1.586725   1.000000
  115       -1.520946   1.000000
  116       -1.499013   1.000000
  117       -1.381679   1.000000
  118       -1.299324   1.000000
  119       -1.145483   1.000000
  120       -1.112654   1.000000
  121       -0.944226   1.000000
  122       -0.873498   1.000000
  123       -0.787020   1.000000
  124       -0.724897   1.000000
  125       -0.618890   1.000006
  126       -0.531996   1.000082
  127       -0.423125   1.001267
  128       -0.329503   1.007697
  129       -0.268142   1.018335
  130       -0.134287   1.028439
  131       -0.082674   0.984076
  132       -0.036411   0.894422
  133        0.063412   0.539821
  134        0.107940   0.353962
  135        0.190562   0.085149
  136        0.278961  -0.028021
  137        0.303208  -0.034556
  138        0.350414  -0.032205
  139        0.443373  -0.012490
  140        0.510641  -0.004142
  141        0.600095  -0.000616
  142        0.658919  -0.000137
  143        0.688821  -0.000059
  144        0.810573  -0.000001
  145        0.840265  -0.000000
  146        0.871785  -0.000000
  147        0.974524  -0.000000
  148        0.995951  -0.000000
  149        1.059630  -0.000000
  150        1.081771  -0.000000
  151        1.153460  -0.000000
  152        1.167430  -0.000000
  153        1.189570  -0.000000
  154        1.266537  -0.000000
  155        1.323363  -0.000000
  156        1.351760  -0.000000
  157        1.373360  -0.000000
  158        1.402452  -0.000000
  159        1.435361  -0.000000
  160        1.451089  -0.000000
  161        1.476906  -0.000000
  162        1.519652  -0.000000
  163        1.587559  -0.000000
  164        1.635565  -0.000000
  165        1.685005  -0.000000
  166        1.836171  -0.000000
  167        1.867423  -0.000000
  168        2.151463  -0.000000

  0.2000000E+00  0.1111111E+00  0.1262379E-14  0.4444444E-01
    1      -13.879677   1.000000
    2      -12.966543   1.000000
    3      -12.717197   1.000000
    4      -12.168062   1.000000
    5      -12.038147   1.000000
    6      -11.972428   1.000000
    7      -11.490621   1.000000
    8      -11.417272   1.000000
    9      -11.233485   1.000000
   10      -11.219140   1.000000
   11      -11.033502   1.000000
   12      -10.989374   1.000000
   13      -10.756262   1.000000
   14      -10.528359   1.000000
   15      -10.458645   1.000000
   16      -10.223964   1.000000
   17      -10.175124   1.000000
   18       -9.998105   1.000000
   19       -9.794158   1.000000
   20       -9.700542   1.000000
   21       -9.554025   1.000000
   22       -9.517886   1.000000
   23       -9.286281   1.000000
   24       -9.207605   1.000000
   25       -8.939278   1.000000
   26       -8.679246   1.000000
   27       -8.398027   1.000000
   28       -8.199559   1.000000
   29       -8.155400   1.000000
   30       -8.095328   1.000000
   31       -7.993623   1.000000
   32       -7.818547   1.000000
   33       -7.612078   1.000000
   34       -7.463116   1.000000
   35       -7.322905   1.000000
   36       -7.198813   1.000000
   37       -7.046045   1.000000
   38       -6.893890   1.000000
   39       -6.767245   1.000000
   40       -6.719367   1.000000
   41       -6.644377   1.000000
   42       -6.577845   1.000000
   43       -6.486118   1.000000
   44       -6.478997   1.000000
   45       -6.315046   1.000000
   46       -6.236040   1.000000
   47       -6.047407   1.000000
   48       -5.979932   1.000000
   49       -5.866609   1.000000
   50       -5.766198   1.000000
   51       -5.706107   1.000000
   52       -5.574801   1.000000
   53       -5.519803   1.000000
   54       -5.502287   1.000000
   55       -5.408898   1.000000
   56       -5.306352   1.000000
   57       -5.189987   1.000000
   58       -5.113615   1.000000
   59       -5.091144   1.000000
   60       -5.004238   1.000000
   61       -4.956519   1.000000
   62       -4.913493   1.000000
   63       -4.733705   1.000000
   64       -4.720050   1.000000
   65       -4.605410   1.000000
   66       -4.529352   1.000000
   67       -4.511262   1.000000
   68       -4.441598   1.000000
   69       -4.403830   1.000000
   70       -4.307974   1.000000
   71       -4.259856   1.000000
   72       -4.217464   1.000000
   73       -4.112736   1.000000
   74       -4.085800   1.000000
   75       -4.018394   1.000000
   76       -3.984850   1.000000
   77       -3.946848   1.000000
   78       -3.865980   1.000000
   79       -3.801305   1.000000
   80       -3.765519   1.000000
   81       -3.744232   1.000000
   82       -3.646624   1.000000
   83       -3.584109   1.000000
   84       -3.504693   1.000000
   85       -3.470786   1.000000
   86       -3.392658   1.000000
   87       -3.320865   1.000000
   88       -3.269229   1.000000
   89       -3.173195   1.000000
   90       -3.093481   1.000000
   91       -3.063446   1.000000
   92       -2.973836   1.000000
   93       -2.923196   1.000000
   94       -2.858001   1.000000
   95       -2.793956   1.000000
   96       -2.681058   1.000000
   97       -2.643780   1.000000
   98       -2.572006   1.000000
   99       -2.509924   1.000000
  100       -2.466868   1.000000
  101       -2.442034   1.000000
  102       -2.321398   1.000000
  103       -2.277600   1.000000
  104       -2.221585   1.000000
  105       -2.158111   1.000000
  106       -2.148024   1.000000
  107       -2.094394   1.000000
  108       -2.038517   1.000000
  109       -1.968016   1.000000
  110       -1.837670   1.000000
  111       -1.784439   1.000000
  112       -1.721440   1.000000
  113       -1.644029   1.000000
  114       -1.573482   1.000000
  115       -1.532011   1.000000
  116       -1.472286   1.000000
  117       -1.381894   1.000000
  118       -1.299164   1.000000
  119       -1.182492   1.000000
  120       -1.112503   1.000000
  121       -1.043798   1.000000
  122       -0.905951   1.000000
  123       -0.798612   1.000000
  124       -0.742399   1.000000
  125       -0.662918   1.000001
  126       -0.617782   1.000006
  127       -0.442528   1.000816
  128       -0.335831   1.006933
  129       -0.305975   1.011087
  130       -0.219610   1.029299
  131       -0.106549   1.010859
  132       -0.005271   0.804205
  133        0.072126   0.502996
  134        0.111471   0.339850
  135        0.161270   0.163291
  136        0.209493   0.046095
  137        0.304135  -0.034672
  138        0.353949  -0.031567
  139        0.518902  -0.003544
  140        0.554858  -0.001714
  141        0.601035  -0.000603
  142        0.646678  -0.000190
  143        0.726287  -0.000019
  144        0.832655  -0.000001
  145        0.874251  -0.000000
  146        0.899949  -0.000000
  147        0.971478  -0.000000
  148        1.013759  -0.000000
  149        1.083638  -0.000000
  150        1.122212  -0.000000
  151        1.162451  -0.000000
  152        1.198609  -0.000000
  153        1.242573  -0.000000
  154        1.306513  -0.000000
  155        1.347589  -0.000000
  156        1.361127  -0.000000
  157        1.396826  -0.000000
  158        1.430222  -0.000000
  159        1.451911  -0.000000
  160        1.469199  -0.000000
  161        1.522714  -0.000000
  162        1.547944  -0.000000
  163        1.587099  -0.000000
  164        1.673547  -0.000000
  165        1.709820  -0.000000
  166        1.824063  -0.000000
  167        2.022391  -0.000000
  168        2.162483  -0.000000

  0.4000000E+00  0.1111111E+00  0.1262379E-14  0.4444444E-01
    1      -13.827417   1.000000
    2      -13.169596   1.000000
    3      -12.625955   1.000000
    4      -12.303884   1.000000
    5      -12.027597   1.000000
    6      -11.630542   1.000000
    7      -11.529165   1.000000
    8      -11.415829   1.000000
    9      -11.151624   1.000000
   10      -11.088625   1.000000
   11      -11.018926   1.000000
   12      -10.919062   1.000000
   13      -10.707206   1.000000
   14      -10.684383   1.000000
   15      -10.555174   1.000000
   16      -10.493586   1.000000
   17      -10.232795   1.000000
   18      -10.108740   1.000000
   19       -9.991998   1.000000
   20       -9.809578   1.000000
   21       -9.564270   1.000000
   22       -9.270479   1.000000
   23       -9.230519   1.000000
   24       -9.163209   1.000000
   25       -8.880508   1.000000
   26       -8.691310   1.000000
   27       -8.246869   1.000000
   28       -8.091704   1.000000
   29       -8.015006   1.000000
   30       -7.881243   1.000000
   31       -7.758635   1.000000
   32       -7.691223   1.000000
   33       -7.621080   1.000000
   34       -7.570376   1.000000
   35       -7.458053   1.000000
   36       -7.377315   1.000000
   37       -7.278634   1.000000
   38       -7.111944   1.000000
   39       -6.995224   1.000000
   40       -6.877047   1.000000
   41       -6.726595   1.000000
   42       -6.546871   1.000000
   43       -6.477618   1.000000
   44       -6.391258   1.000000
   45       -6.249363   1.000000
   46       -6.142295   1.000000
   47       -6.039409   1.000000
   48       -5.984382   1.000000
   49       -5.881526   1.000000
   50       -5.771650   1.000000
   51       -5.677382   1.000000