 running on   72 total cores
 distrk:  each k-point on   72 cores,    1 groups
 distr:  one band on    9 cores,    8 groups
 using from now: INCAR     
 vasp.5.4.4.18Apr17-6-g9f103f2a35 (build Dec  7 2020 12:43:57) complex           
 POSCAR found type information on POSCAR  Mo V  B  H 
 POSCAR found :  4 types and      70 ions
 scaLAPACK will be used

 ----------------------------------------------------------------------------- 
|                                                                             |
|  ADVICE TO THIS USER RUNNING 'VASP/VAMP'   (HEAR YOUR MASTER'S VOICE ...):  |
|                                                                             |
|      You enforced a specific xc-type in the INCAR file,                     |
|      a different type was found on the POTCAR file                          |
|          I HOPE YOU KNOW, WHAT YOU ARE  DOING                               |
|                                                                             |
 ----------------------------------------------------------------------------- 

 LDA part: xc-table for Pade appr. of Perdew
 POSCAR, INCAR and KPOINTS ok, starting setup
 resort distribution
 resort distribution
 resort distribution
 resort distribution
 resort distribution
 resort distribution
 resort distribution
 resort distribution
 resort distribution
 resort distribution
 resort distribution
 resort distribution
 resort distribution
 resort distribution
 resort distribution
 resort distribution
 resort distribution
 resort distribution
 resort distribution
 resort distribution
 resort distribution
 resort distribution
 resort distribution
 resort distribution
 resort distribution
 resort distribution
 resort distribution
 resort distribution
 resort distribution
 resort distribution
 resort distribution
 resort distribution
 resort distribution
 resort distribution
 resort distribution
 resort distribution
 resort distribution
 resort distribution
 resort distribution
 resort distribution
 resort distribution
 resort distribution
 resort distribution
 resort distribution
 resort distribution
 resort distribution
 resort distribution
 resort distribution
 resort distribution
 resort distribution
 resort distribution
 resort distribution
 resort distribution
 resort distribution
 resort distribution
 resort distribution
 resort distribution
 resort distribution
 resort distribution
 resort distribution
 resort distribution
 resort distribution
 resort distribution
 resort distribution
 resort distribution
 resort distribution
 resort distribution
 resort distribution
 resort distribution
 resort distribution
 resort distribution
 resort distribution
 FFT: planning ...
 WAVECAR not read
 augmentation electrons   265.01688469495321     
 soft         electrons   0.0000000000000000     
 augmentation electrons   265.01688469495321     
 soft         electrons   0.0000000000000000     
 augmentation electrons   265.01688469495321     
 soft         electrons   0.0000000000000000     
 augmentation electrons   265.01688469495321     
 soft         electrons   0.0000000000000000     
 augmentation electrons   265.01688469495321     
 soft         electrons   0.0000000000000000     
 augmentation electrons   265.01688469495321     
 soft         electrons   0.0000000000000000     
 augmentation electrons   265.01688469495321     
 soft         electrons   0.0000000000000000     
 augmentation electrons   265.01688469495321     
 soft         electrons   0.0000000000000000     
 augmentation electrons   265.01688469495321     
 soft         electrons   0.0000000000000000     
 augmentation electrons   265.01688469495321     
 soft         electrons   0.0000000000000000     
 augmentation electrons   265.01688469495321     
 soft         electrons   0.0000000000000000     
 augmentation electrons   265.01688469495321     
 soft         electrons   0.0000000000000000     
 augmentation electrons   265.01688469495321     
 soft         electrons   0.0000000000000000     
 augmentation electrons   265.01688469495321     
 soft         electrons   0.0000000000000000     
 augmentation electrons   265.01688469495321     
 soft         electrons   0.0000000000000000     
 augmentation electrons   265.01688469495321     
 soft         electrons   0.0000000000000000     
 augmentation electrons   265.01688469495321     
 soft         electrons   0.0000000000000000     
 augmentation electrons   265.01688469495321     
 soft         electrons   0.0000000000000000     
 augmentation electrons   265.01688469495321     
 soft         electrons   0.0000000000000000     
 augmentation electrons   265.01688469495321     
 soft         electrons   0.0000000000000000     
 augmentation electrons   265.01688469495321     
 soft         electrons   0.0000000000000000     
 augmentation electrons   265.01688469495321     
 soft         electrons   0.0000000000000000     
 augmentation electrons   265.01688469495321     
 soft         electrons   0.0000000000000000     
 augmentation electrons   265.01688469495321     
 soft         electrons   0.0000000000000000     
 augmentation electrons   265.01688469495321     
 soft         electrons   0.0000000000000000     
 augmentation electrons   265.01688469495321     
 soft         electrons   0.0000000000000000     
 augmentation electrons   265.01688469495321     
 soft         electrons   0.0000000000000000     
 augmentation electrons   265.01688469495321     
 soft         electrons   0.0000000000000000     
 augmentation electrons   265.01688469495321     
 soft         electrons   0.0000000000000000     
 augmentation electrons   265.01688469495321     
 soft         electrons   0.0000000000000000     
 augmentation electrons   265.01688469495321     
 soft         electrons   0.0000000000000000     
 augmentation electrons   265.01688469495321     
 soft         electrons   0.0000000000000000     
 augmentation electrons   265.01688469495321     
 soft         electrons   0.0000000000000000     
 augmentation electrons   265.01688469495321     
 soft         electrons   0.0000000000000000     
 augmentation electrons   265.01688469495321     
 soft         electrons   0.0000000000000000     
 augmentation electrons   265.01688469495321     
 soft         electrons   0.0000000000000000     
 augmentation electrons   265.01688469495321     
 soft         electrons   0.0000000000000000     
 augmentation electrons   265.01688469495321     
 soft         electrons   0.0000000000000000     
 augmentation electrons   265.01688469495321     
 soft         electrons   0.0000000000000000     
 augmentation electrons   265.01688469495321     
 soft         electrons   0.0000000000000000     
 augmentation electrons   265.01688469495321     
 soft         electrons   0.0000000000000000     
 augmentation electrons   265.01688469495321     
 soft         electrons   0.0000000000000000     
 augmentation electrons   265.01688469495321     
 soft         electrons   0.0000000000000000     
 augmentation electrons   265.01688469495321     
 soft         electrons   0.0000000000000000     
 augmentation electrons   265.01688469495321     
 soft         electrons   0.0000000000000000     
 augmentation electrons   265.01688469495321     
 soft         electrons   0.0000000000000000     
 augmentation electrons   265.01688469495321     
 soft         electrons   0.0000000000000000     
 augmentation electrons   265.01688469495321     
 soft         electrons   0.0000000000000000     
 augmentation electrons   265.01688469495321     
 soft         electrons   0.0000000000000000     
 augmentation electrons   265.01688469495321     
 soft         electrons   0.0000000000000000     
 augmentation electrons   265.01688469495321     
 soft         electrons   0.0000000000000000     
 augmentation electrons   265.01688469495321     
 soft         electrons   0.0000000000000000     
 augmentation electrons   265.01688469495321     
 soft         electrons   0.0000000000000000     
 augmentation electrons   265.01688469495321     
 soft         electrons   0.0000000000000000     
 augmentation electrons   265.01688469495321     
 soft         electrons   0.0000000000000000     
 augmentation electrons   265.01688469495321     
 soft         electrons   0.0000000000000000     
 augmentation electrons   265.01688469495321     
 soft         electrons   0.0000000000000000     
 augmentation electrons   265.01688469495321     
 soft         electrons   0.0000000000000000     
 augmentation electrons   265.01688469495321     
 soft         electrons   0.0000000000000000     
 augmentation electrons   265.01688469495321     
 soft         electrons   0.0000000000000000     
 augmentation electrons   265.01688469495321     
 soft         electrons   0.0000000000000000     
 augmentation electrons   265.01688469495321     
 soft         electrons   0.0000000000000000     
 augmentation electrons   265.01688469495321     
 soft         electrons   0.0000000000000000     
 augmentation electrons   265.01688469495321     
 soft         electrons   0.0000000000000000     
 augmentation electrons   265.01688469495321     
 soft         electrons   0.0000000000000000     
 augmentation electrons   265.01688469495321     
 soft         electrons   0.0000000000000000     
 augmentation electrons   265.01688469495321     
 soft         electrons   0.0000000000000000     
 augmentation electrons   265.01688469495321     
 soft         electrons   0.0000000000000000     
 augmentation electrons   265.01688469495321     
 soft         electrons   0.0000000000000000     
 augmentation electrons   265.01688469495321     
 soft         electrons   0.0000000000000000     
 augmentation electrons   265.01688469495321     
 soft         electrons   0.0000000000000000     
 augmentation electrons   265.01688469495321     
 soft         electrons   0.0000000000000000     
 total        electrons   265.01688469495321     
 total        electrons   265.01688469495321     
 total        electrons   265.01688469495321     
 total        electrons   265.01688469495321     
 total        electrons   265.01688469495321     
 total        electrons   265.01688469495321     
 total        electrons   265.01688469495321     
 total        electrons   265.01688469495321     
 total        electrons   265.01688469495321     
 total        electrons   265.01688469495321     
 total        electrons   265.01688469495321     
 total        electrons   265.01688469495321     
 total        electrons   265.01688469495321     
 total        electrons   265.01688469495321     
 total        electrons   265.01688469495321     
 total        electrons   265.01688469495321     
 total        electrons   265.01688469495321     
 total        electrons   265.01688469495321     
 total        electrons   265.01688469495321     
 total        electrons   265.01688469495321     
 total        electrons   265.01688469495321     
 total        electrons   265.01688469495321     
 total        electrons   265.01688469495321     
 total        electrons   265.01688469495321     
 total        electrons   265.01688469495321     
 total        electrons   265.01688469495321     
 total        electrons   265.01688469495321     
 total        electrons   265.01688469495321     
 total        electrons   265.01688469495321     
 total        electrons   265.01688469495321     
 total        electrons   265.01688469495321     
 total        electrons   265.01688469495321     
 total        electrons   265.01688469495321     
 total        electrons   265.01688469495321     
 total        electrons   265.01688469495321     
 total        electrons   265.01688469495321     
 total        electrons   265.01688469495321     
 total        electrons   265.01688469495321     
 total        electrons   265.01688469495321     
 total        electrons   265.01688469495321     
 total        electrons   265.01688469495321     
 total        electrons   265.01688469495321     
 total        electrons   265.01688469495321     
 total        electrons   265.01688469495321     
 total        electrons   265.01688469495321     
 total        electrons   265.01688469495321     
 total        electrons   265.01688469495321     
 total        electrons   265.01688469495321     
 total        electrons   265.01688469495321     
 total        electrons   265.01688469495321     
 total        electrons   265.01688469495321     
 total        electrons   265.01688469495321     
 total        electrons   265.01688469495321     
 total        electrons   265.01688469495321     
 total        electrons   265.01688469495321     
 total        electrons   265.01688469495321     
 total        electrons   265.01688469495321     
 total        electrons   265.01688469495321     
 total        electrons   265.01688469495321     
 total        electrons   265.01688469495321     
 total        electrons   265.01688469495321     
 total        electrons   265.01688469495321     
 total        electrons   265.01688469495321     
 total        electrons   265.01688469495321     
 total        electrons   265.01688469495321     
 total        electrons   265.01688469495321     
 total        electrons   265.01688469495321     
 total        electrons   265.01688469495321     
 total        electrons   265.01688469495321     
 total        electrons   265.01688469495321     
 total        electrons   265.01688469495321     
 total        electrons   265.01688469495321     
 augmentation electrons   853.25631657386850     
 soft         electrons   0.0000000000000000     
 augmentation electrons   853.25631657386850     
 soft         electrons   0.0000000000000000     
 augmentation electrons   853.25631657386850     
 soft         electrons   0.0000000000000000     
 augmentation electrons   853.25631657386850     
 soft         electrons   0.0000000000000000     
 augmentation electrons   853.25631657386850     
 soft         electrons   0.0000000000000000     
 augmentation electrons   853.25631657386850     
 soft         electrons   0.0000000000000000     
 augmentation electrons   853.25631657386850     
 soft         electrons   0.0000000000000000     
 augmentation electrons   853.25631657386850     
 soft         electrons   0.0000000000000000     
 augmentation electrons   853.25631657386850     
 soft         electrons   0.0000000000000000     
 augmentation electrons   853.25631657386850     
 soft         electrons   0.0000000000000000     
 augmentation electrons   853.25631657386850     
 soft         electrons   0.0000000000000000     
 augmentation electrons   853.25631657386850     
 soft         electrons   0.0000000000000000     
 augmentation electrons   853.25631657386850     
 soft         electrons   0.0000000000000000     
 augmentation electrons   853.25631657386850     
 soft         electrons   0.0000000000000000     
 augmentation electrons   853.25631657386850     
 soft         electrons   0.0000000000000000     
 augmentation electrons   853.25631657386850     
 soft         electrons   0.0000000000000000     
 augmentation electrons   853.25631657386850     
 soft         electrons   0.0000000000000000     
 augmentation electrons   853.25631657386850     
 soft         electrons   0.0000000000000000     
 augmentation electrons   853.25631657386850     
 soft         electrons   0.0000000000000000     
 augmentation electrons   853.25631657386850     
 soft         electrons   0.0000000000000000     
 augmentation electrons   853.25631657386850     
 soft         electrons   0.0000000000000000     
 augmentation electrons   853.25631657386850     
 soft         electrons   0.0000000000000000     
 augmentation electrons   853.25631657386850     
 soft         electrons   0.0000000000000000     
 augmentation electrons   853.25631657386850     
 soft         electrons   0.0000000000000000     
 augmentation electrons   853.25631657386850     
 soft         electrons   0.0000000000000000     
 augmentation electrons   853.25631657386850     
 soft         electrons   0.0000000000000000     
 augmentation electrons   853.25631657386850     
 soft         electrons   0.0000000000000000     
 augmentation electrons   853.25631657386850     
 soft         electrons   0.0000000000000000     
 augmentation electrons   853.25631657386850     
 soft         electrons   0.0000000000000000     
 augmentation electrons   853.25631657386850     
 soft         electrons   0.0000000000000000     
 augmentation electrons   853.25631657386850     
 soft         electrons   0.0000000000000000     
 augmentation electrons   853.25631657386850     
 soft         electrons   0.0000000000000000     
 augmentation electrons   853.25631657386850     
 soft         electrons   0.0000000000000000     
 augmentation electrons   853.25631657386850     
 soft         electrons   0.0000000000000000     
 augmentation electrons   853.25631657386850     
 soft         electrons   0.0000000000000000     
 augmentation electrons   853.25631657386850     
 soft         electrons   0.0000000000000000     
 augmentation electrons   853.25631657386850     
 soft         electrons   0.0000000000000000     
 augmentation electrons   853.25631657386850     
 soft         electrons   0.0000000000000000     
 augmentation electrons   853.25631657386850     
 soft         electrons   0.0000000000000000     
 augmentation electrons   853.25631657386850     
 soft         electrons   0.0000000000000000     
 augmentation electrons   853.25631657386850     
 soft         electrons   0.0000000000000000     
 augmentation electrons   853.25631657386850     
 soft         electrons   0.0000000000000000     
 augmentation electrons   853.25631657386850     
 soft         electrons   0.0000000000000000     
 augmentation electrons   853.25631657386850     
 soft         electrons   0.0000000000000000     
 augmentation electrons   853.25631657386850     
 soft         electrons   0.0000000000000000     
 augmentation electrons   853.25631657386850     
 soft         electrons   0.0000000000000000     
 augmentation electrons   853.25631657386850     
 soft         electrons   0.0000000000000000     
 augmentation electrons   853.25631657386850     
 soft         electrons   0.0000000000000000     
 augmentation electrons   853.25631657386850     
 soft         electrons   0.0000000000000000     
 augmentation electrons   853.25631657386850     
 soft         electrons   0.0000000000000000     
 augmentation electrons   853.25631657386850     
 soft         electrons   0.0000000000000000     
 augmentation electrons   853.25631657386850     
 soft         electrons   0.0000000000000000     
 augmentation electrons   853.25631657386850     
 soft         electrons   0.0000000000000000     
 augmentation electrons   853.25631657386850     
 soft         electrons   0.0000000000000000     
 augmentation electrons   853.25631657386850     
 soft         electrons   0.0000000000000000     
 augmentation electrons   853.25631657386850     
 soft         electrons   0.0000000000000000     
 augmentation electrons   853.25631657386850     
 soft         electrons   0.0000000000000000     
 augmentation electrons   853.25631657386850     
 augmentation electrons   853.25631657386850     
 soft         electrons   0.0000000000000000     
 augmentation electrons   853.25631657386850     
 soft         electrons   0.0000000000000000     
 augmentation electrons   853.25631657386850     
 soft         electrons   0.0000000000000000     
 augmentation electrons   853.25631657386850     
 soft         electrons   0.0000000000000000     
 augmentation electrons   853.25631657386850     
 soft         electrons   0.0000000000000000     
 augmentation electrons   853.25631657386850     
 soft         electrons   0.0000000000000000     
 augmentation electrons   853.25631657386850     
 soft         electrons   0.0000000000000000     
 augmentation electrons   853.25631657386850     
 soft         electrons   0.0000000000000000     
 augmentation electrons   853.25631657386850     
 soft         electrons   0.0000000000000000     
 augmentation electrons   853.25631657386850     
 soft         electrons   0.0000000000000000     
 augmentation electrons   853.25631657386850     
 soft         electrons   0.0000000000000000     
 augmentation electrons   853.25631657386850     
 soft         electrons   0.0000000000000000     
 augmentation electrons   853.25631657386850     
 soft         electrons   0.0000000000000000     
 augmentation electrons   853.25631657386850     
 soft         electrons   0.0000000000000000     
 soft         electrons   0.0000000000000000     
 total        electrons   853.25631657386850     
 total        electrons   853.25631657386850     
 total        electrons   853.25631657386850     
 total        electrons   853.25631657386850     
 total        electrons   853.25631657386850     
 total        electrons   853.25631657386850     
 total        electrons   853.25631657386850     
 total        electrons   853.25631657386850     
 total        electrons   853.25631657386850     
 total        electrons   853.25631657386850     
 total        electrons   853.25631657386850     
 total        electrons   853.25631657386850     
 total        electrons   853.25631657386850     
 total        electrons   853.25631657386850     
 total        electrons   853.25631657386850     
 total        electrons   853.25631657386850     
 total        electrons   853.25631657386850     
 total        electrons   853.25631657386850     
 total        electrons   853.25631657386850     
 total        electrons   853.25631657386850     
 total        electrons   853.25631657386850     
 total        electrons   853.25631657386850     
 total        electrons   853.25631657386850     
 total        electrons   853.25631657386850     
 total        electrons   853.25631657386850     
 total        electrons   853.25631657386850     
 total        electrons   853.25631657386850     
 total        electrons   853.25631657386850     
 total        electrons   853.25631657386850     
 total        electrons   853.25631657386850     
 total        electrons   853.25631657386850     
 total        electrons   853.25631657386850     
 total        electrons   853.25631657386850     
 total        electrons   853.25631657386850     
 total        electrons   853.25631657386850     
 total        electrons   853.25631657386850     
 total        electrons   853.25631657386850     
 total        electrons   853.25631657386850     
 total        electrons   853.25631657386850     
 total        electrons   853.25631657386850     
 total        electrons   853.25631657386850     
 total        electrons   853.25631657386850     
 total        electrons   853.25631657386850     
 total        electrons   853.25631657386850     
 total        electrons   853.25631657386850     
 total        electrons   853.25631657386850     
 total        electrons   853.25631657386850     
 total        electrons   853.25631657386850     
 total        electrons   853.25631657386850     
 total        electrons   853.25631657386850     
 total        electrons   853.25631657386850     
 total        electrons   853.25631657386850     
 total        electrons   853.25631657386850     
 total        electrons   853.25631657386850     
 total        electrons   853.25631657386850     
 total        electrons   853.25631657386850     
 total        electrons   853.25631657386850     
 total        electrons   853.25631657386850     
 total        electrons   853.25631657386850     
 total        electrons   853.25631657386850     
 total        electrons   853.25631657386850     
 total        electrons   853.25631657386850     
 total        electrons   853.25631657386850     
 total        electrons   853.25631657386850     
 total        electrons   853.25631657386850     
 total        electrons   853.25631657386850     
 total        electrons   853.25631657386850     
 total        electrons   853.25631657386850     
 total        electrons   853.25631657386850     
 total        electrons   853.25631657386850     
 total        electrons   853.25631657386850     
 total        electrons   853.25631657386850     
 entering main loop
       N       E                     dE             d eps       ncg     rms          rms(c)
DAV:   1     0.234515850593E+04    0.23452E+04   -0.94851E+04  7728   0.128E+03
DAV:   2    -0.160072071087E+03   -0.25052E+04   -0.23339E+04  8968   0.311E+02
DAV:   3    -0.589066266820E+03   -0.42899E+03   -0.41056E+03 10904   0.150E+02
DAV:   4    -0.625520876211E+03   -0.36455E+02   -0.35126E+02 12464   0.489E+01
DAV:   5    -0.627635276784E+03   -0.21144E+01   -0.20493E+01 13096   0.117E+01    0.134E+02
RMM:   6    -0.579028673455E+03    0.48607E+02   -0.12096E+03 12407   0.941E+01    0.638E+01
RMM:   7    -0.647976697655E+03   -0.68948E+02   -0.43738E+02  9824   0.721E+01    0.526E+01
RMM:   8    -0.570247781057E+03    0.77729E+02   -0.17049E+02 11026   0.271E+01    0.371E+01
RMM:   9    -0.534060277329E+03    0.36188E+02   -0.39124E+01  9749   0.200E+01    0.238E+01
RMM:  10    -0.525174229842E+03    0.88860E+01   -0.33904E+01 10301   0.152E+01    0.162E+01
RMM:  11    -0.524901834314E+03    0.27240E+00   -0.60724E+00 10646   0.650E+00    0.141E+01
RMM:  12    -0.524763348113E+03    0.13849E+00   -0.17992E+00 10523   0.250E+00    0.128E+01
RMM:  13    -0.524390725626E+03    0.37262E+00   -0.13372E+00 10096   0.333E+00    0.103E+01
RMM:  14    -0.524489366817E+03   -0.98641E-01   -0.37425E+00  8679   0.672E+00    0.768E+00
RMM:  15    -0.523797753688E+03    0.69161E+00   -0.14191E+00  9082   0.407E+00    0.353E+00
RMM:  16    -0.523719240153E+03    0.78514E-01   -0.87443E-01 11568   0.183E+00    0.209E+00
RMM:  17    -0.523696940464E+03    0.22300E-01   -0.26796E-01 10877   0.131E+00    0.145E+00
RMM:  18    -0.523690705507E+03    0.62350E-02   -0.15485E-01 10329   0.115E+00    0.130E+00
RMM:  19    -0.523672853933E+03    0.17852E-01   -0.88712E-02  9174   0.943E-01    0.728E-01
RMM:  20    -0.523665932692E+03    0.69212E-02   -0.48483E-02 11788   0.360E-01    0.454E-01
RMM:  21    -0.523664042383E+03    0.18903E-02   -0.12933E-02  9405   0.302E-01    0.330E-01
RMM:  22    -0.523663087426E+03    0.95496E-03   -0.60190E-03 10927   0.172E-01    0.167E-01
RMM:  23    -0.523662577867E+03    0.50956E-03   -0.36020E-03 11882   0.100E-01    0.133E-01
RMM:  24    -0.523661862236E+03    0.71563E-03   -0.19003E-03  9496   0.127E-01    0.140E-01
RMM:  25    -0.523661484108E+03    0.37813E-03   -0.13504E-03 10193   0.925E-02    0.104E-01
RMM:  26    -0.523661710003E+03   -0.22589E-03   -0.68706E-04 11100   0.578E-02    0.505E-02
RMM:  27    -0.523662447842E+03   -0.73784E-03   -0.57780E-04 10217   0.530E-02    0.424E-02
RMM:  28    -0.523662828791E+03   -0.38095E-03   -0.25292E-04 10349   0.309E-02    0.261E-02
RMM:  29    -0.523663099561E+03   -0.27077E-03   -0.19851E-04 10950   0.231E-02    0.204E-02
RMM:  30    -0.523663224522E+03   -0.12496E-03   -0.99465E-05 10446   0.176E-02    0.124E-02
RMM:  31    -0.523663286659E+03   -0.62137E-04   -0.44729E-05  9259   0.982E-03    0.116E-02
RMM:  32    -0.523663375785E+03   -0.89127E-04   -0.27240E-05  8559   0.832E-03    0.543E-03
RMM:  33    -0.523663475605E+03   -0.99819E-04   -0.88807E-06  7350   0.595E-03    0.552E-03
RMM:  34    -0.523663651032E+03   -0.17543E-03   -0.17991E-05  8118   0.927E-03    0.115E-02
RMM:  35    -0.523663743845E+03   -0.92814E-04   -0.13079E-05  7468   0.123E-02    0.864E-03
RMM:  36    -0.523663806882E+03   -0.63036E-04   -0.10128E-05  7133   0.746E-03    0.511E-03
RMM:  37    -0.523663836114E+03   -0.29232E-04   -0.35259E-06  6761   0.373E-03    0.159E-03
RMM:  38    -0.523663856567E+03   -0.20453E-04   -0.20027E-06  6326   0.324E-03    0.254E-03
RMM:  39    -0.523663866321E+03   -0.97545E-05   -0.11452E-06  5912   0.265E-03    0.793E-04
RMM:  40    -0.523663869360E+03   -0.30394E-05   -0.49692E-07  5168   0.196E-03    0.102E-03
RMM:  41    -0.523663871731E+03   -0.23703E-05   -0.34205E-07  4452   0.141E-03    0.252E-04
RMM:  42    -0.523663873192E+03   -0.14611E-05   -0.25622E-07  3962   0.114E-03    0.275E-04
RMM:  43    -0.523663873576E+03   -0.38449E-06   -0.14722E-07  3620   0.105E-03
   1 F= -.52366387E+03 E0= -.52365653E+03  d E =-.220237E-01
 augmentation electrons   27.560088819370975     
 soft         electrons   237.51575337298243     
 total        electrons   265.07584219235343     
 augmentation electrons   27.560088819370975     
 soft         electrons   237.51575337298243     
 total        electrons   265.07584219235343     
 augmentation electrons   27.560088819370975     
 soft         electrons   237.51575337298243     
 total        electrons   265.07584219235343     
 augmentation electrons   27.560088819370975     
 soft         electrons   237.51575337298243     
 total        electrons   265.07584219235343     
 augmentation electrons   27.560088819370975     
 soft         electrons   237.51575337298243     
 total        electrons   265.07584219235343     
 augmentation electrons   27.560088819370975     
 soft         electrons   237.51575337298243     
 total        electrons   265.07584219235343     
 augmentation electrons   27.560088819370975     
 soft         electrons   237.51575337298243     
 total        electrons   265.07584219235343     
 augmentation electrons   27.560088819370975     
 soft         electrons   237.51575337298243     
 total        electrons   265.07584219235343     
 augmentation electrons   27.560088819370975     
 soft         electrons   237.51575337298243     
 total        electrons   265.07584219235343     
 augmentation electrons   27.560088819370975     
 soft         electrons   237.51575337298243     
 total        electrons   265.07584219235343     
 augmentation electrons   27.560088819370975     
 soft         electrons   237.51575337298243     
 total        electrons   265.07584219235343     
 augmentation electrons   27.560088819370975     
 soft         electrons   237.51575337298243     
 total        electrons   265.07584219235343     
 augmentation electrons   27.560088819370975     
 soft         electrons   237.51575337298243     
 total        electrons   265.07584219235343     
 augmentation electrons   27.560088819370975     
 soft         electrons   237.51575337298243     
 total        electrons   265.07584219235343     
 augmentation electrons   27.560088819370975     
 soft         electrons   237.51575337298243     
 total        electrons   265.07584219235343     
 augmentation electrons   27.560088819370975     
 soft         electrons   237.51575337298243     
 total        electrons   265.07584219235343     
 augmentation electrons   27.560088819370975     
 soft         electrons   237.51575337298243     
 total        electrons   265.07584219235343     
 augmentation electrons   27.560088819370975     
 soft         electrons   237.51575337298243     
 total        electrons   265.07584219235343     
 augmentation electrons   27.560088819370975     
 soft         electrons   237.51575337298243     
 total        electrons   265.07584219235343     
 augmentation electrons   27.560088819370975     
 soft         electrons   237.51575337298243     
 total        electrons   265.07584219235343     
 augmentation electrons   27.560088819370975     
 soft         electrons   237.51575337298243     
 total        electrons   265.07584219235343     
 augmentation electrons   27.560088819370975     
 soft         electrons   237.51575337298243     
 total        electrons   265.07584219235343     
 augmentation electrons   27.560088819370975     
 soft         electrons   237.51575337298243     
 total        electrons   265.07584219235343     
 augmentation electrons   27.560088819370975     
 soft         electrons   237.51575337298243     
 total        electrons   265.07584219235343     
 augmentation electrons   27.560088819370975     
 soft         electrons   237.51575337298243     
 total        electrons   265.07584219235343     
 augmentation electrons   27.560088819370975     
 soft         electrons   237.51575337298243     
 total        electrons   265.07584219235343     
 augmentation electrons   27.560088819370975     
 soft         electrons   237.51575337298243     
 total        electrons   265.07584219235343     
 augmentation electrons   27.560088819370975     
 soft         electrons   237.51575337298243     
 total        electrons   265.07584219235343     
 augmentation electrons   27.560088819370975     
 soft         electrons   237.51575337298243     
 total        electrons   265.07584219235343     
 augmentation electrons   27.560088819370975     
 soft         electrons   237.51575337298243     
 total        electrons   265.07584219235343     
 augmentation electrons   27.560088819370975     
 soft         electrons   237.51575337298243     
 total        electrons   265.07584219235343     
 augmentation electrons   27.560088819370975     
 soft         electrons   237.51575337298243     
 total        electrons   265.07584219235343     
 augmentation electrons   27.560088819370975     
 soft         electrons   237.51575337298243     
 total        electrons   265.07584219235343     
 augmentation electrons   27.560088819370975     
 soft         electrons   237.51575337298243     
 total        electrons   265.07584219235343     
 augmentation electrons   27.560088819370975     
 soft         electrons   237.51575337298243     
 total        electrons   265.07584219235343     
 augmentation electrons   27.560088819370975     
 soft         electrons   237.51575337298243     
 total        electrons   265.07584219235343     
 augmentation electrons   27.560088819370975     
 soft         electrons   237.51575337298243     
 total        electrons   265.07584219235343     
 augmentation electrons   27.560088819370975     
 soft         electrons   237.51575337298243     
 total        electrons   265.07584219235343     
 augmentation electrons   27.560088819370975     
 soft         electrons   237.51575337298243     
 total        electrons   265.07584219235343     
 augmentation electrons   27.560088819370975     
 soft         electrons   237.51575337298243     
 total        electrons   265.07584219235343     
 augmentation electrons   27.560088819370975     
 soft         electrons   237.51575337298243     
 total        electrons   265.07584219235343     
 augmentation electrons   27.560088819370975     
 soft         electrons   237.51575337298243     
 total        electrons   265.07584219235343     
 augmentation electrons   27.560088819370975     
 soft         electrons   237.51575337298243     
 total        electrons   265.07584219235343     
 augmentation electrons   27.560088819370975     
 soft         electrons   237.51575337298243     
 total        electrons   265.07584219235343     
 augmentation electrons   27.560088819370975     
 soft         electrons   237.51575337298243     
 total        electrons   265.07584219235343     
 augmentation electrons   27.560088819370975     
 soft         electrons   237.51575337298243     
 total        electrons   265.07584219235343     
 augmentation electrons   27.560088819370975     
 soft         electrons   237.51575337298243     
 total        electrons   265.07584219235343     
 augmentation electrons   27.560088819370975     
 soft         electrons   237.51575337298243     
 total        electrons   265.07584219235343     
 augmentation electrons   27.560088819370975     
 soft         electrons   237.51575337298243     
 total        electrons   265.07584219235343     
 augmentation electrons   27.560088819370975     
 soft         electrons   237.51575337298243     
 total        electrons   265.07584219235343     
 augmentation electrons   27.560088819370975     
 soft         electrons   237.51575337298243     
 total        electrons   265.07584219235343     
 augmentation electrons   27.560088819370975     
 soft         electrons   237.51575337298243     
 total        electrons   265.07584219235343     
 augmentation electrons   27.560088819370975     
 soft         electrons   237.51575337298243     
 total        electrons   265.07584219235343     
 augmentation electrons   27.560088819370975     
 soft         electrons   237.51575337298243     
 total        electrons   265.07584219235343     
 augmentation electrons   27.560088819370975     
 soft         electrons   237.51575337298243     
 total        electrons   265.07584219235343     
 augmentation electrons   27.560088819370975     
 soft         electrons   237.51575337298243     
 total        electrons   265.07584219235343     
 augmentation electrons   27.560088819370975     
 soft         electrons   237.51575337298243     
 total        electrons   265.07584219235343     
 augmentation electrons   27.560088819370975     
 soft         electrons   237.51575337298243     
 total        electrons   265.07584219235343     
 augmentation electrons   27.560088819370975     
 soft         electrons   237.51575337298243     
 total        electrons   265.07584219235343     
 augmentation electrons   27.560088819370975     
 soft         electrons   237.51575337298243     
 total        electrons   265.07584219235343     
 augmentation electrons   27.560088819370975     
 soft         electrons   237.51575337298243     
 total        electrons   265.07584219235343     
 augmentation electrons   27.560088819370975     
 soft         electrons   237.51575337298243     
 total        electrons   265.07584219235343     
 augmentation electrons   27.560088819370975     
 soft         electrons   237.51575337298243     
 total        electrons   265.07584219235343     
 augmentation electrons   27.560088819370975     
 soft         electrons   237.51575337298243     
 total        electrons   265.07584219235343     
 augmentation electrons   27.560088819370975     
 soft         electrons   237.51575337298243     
 total        electrons   265.07584219235343     
 augmentation electrons   27.560088819370975     
 soft         electrons   237.51575337298243     
 total        electrons   265.07584219235343     
 augmentation electrons   27.560088819370975     
 soft         electrons   237.51575337298243     
 total        electrons   265.07584219235343     
 augmentation electrons   27.560088819370975     
 soft         electrons   237.51575337298243     
 total        electrons   265.07584219235343     
 augmentation electrons   27.560088819370975     
 soft         electrons   237.51575337298243     
 total        electrons   265.07584219235343     
 augmentation electrons   27.560088819370975     
 soft         electrons   237.51575337298243     
 total        electrons   265.07584219235343     
 augmentation electrons   27.560088819370975     
 soft         electrons   237.51575337298243     
 total        electrons   265.07584219235343     
 augmentation electrons   27.560088819370975     
 soft         electrons   237.51575337298243     
 total        electrons   265.07584219235343     
Note: The following floating-point exceptions are signalling: IEEE_OVERFLOW_FLAG
Note: The following floating-point exceptions are signalling: IEEE_OVERFLOW_FLAG
Note: The following floating-point exceptions are signalling: IEEE_OVERFLOW_FLAG
Note: The following floating-point exceptions are signalling: IEEE_OVERFLOW_FLAG
Note: The following floating-point exceptions are signalling: IEEE_OVERFLOW_FLAG
Note: The following floating-point exceptions are signalling: IEEE_OVERFLOW_FLAG
Note: The following floating-point exceptions are signalling: IEEE_OVERFLOW_FLAG
Note: The following floating-point exceptions are signalling: IEEE_OVERFLOW_FLAG
Note: The following floating-point exceptions are signalling: IEEE_OVERFLOW_FLAG
Note: The following floating-point exceptions are signalling: IEEE_OVERFLOW_FLAG
Note: The following floating-point exceptions are signalling: IEEE_OVERFLOW_FLAG
Note: The following floating-point exceptions are signalling: IEEE_OVERFLOW_FLAG
Note: The following floating-point exceptions are signalling: IEEE_OVERFLOW_FLAG
Note: The following floating-point exceptions are signalling: IEEE_OVERFLOW_FLAG
Note: The following floating-point exceptions are signalling: IEEE_OVERFLOW_FLAG
Note: The following floating-point exceptions are signalling: IEEE_OVERFLOW_FLAG
Note: The following floating-point exceptions are signalling: IEEE_OVERFLOW_FLAG
Note: The following floating-point exceptions are signalling: IEEE_OVERFLOW_FLAG
Note: The following floating-point exceptions are signalling: IEEE_OVERFLOW_FLAG
Note: The following floating-point exceptions are signalling: IEEE_OVERFLOW_FLAG
Note: The following floating-point exceptions are signalling: IEEE_OVERFLOW_FLAG
Note: The following floating-point exceptions are signalling: IEEE_OVERFLOW_FLAG
Note: The following floating-point exceptions are signalling: IEEE_OVERFLOW_FLAG
Note: The following floating-point exceptions are signalling: IEEE_OVERFLOW_FLAG
Note: The following floating-point exceptions are signalling: IEEE_OVERFLOW_FLAG
Note: The following floating-point exceptions are signalling: IEEE_OVERFLOW_FLAG
Note: The following floating-point exceptions are signalling: IEEE_OVERFLOW_FLAG
Note: The following floating-point exceptions are signalling: IEEE_OVERFLOW_FLAG
Note: The following floating-point exceptions are signalling: IEEE_OVERFLOW_FLAG
Note: The following floating-point exceptions are signalling: IEEE_OVERFLOW_FLAG
Note: The following floating-point exceptions are signalling: IEEE_OVERFLOW_FLAG
Note: The following floating-point exceptions are signalling: IEEE_OVERFLOW_FLAG
Note: The following floating-point exceptions are signalling: IEEE_OVERFLOW_FLAG
Note: The following floating-point exceptions are signalling: IEEE_OVERFLOW_FLAG
Note: The following floating-point exceptions are signalling: IEEE_OVERFLOW_FLAG
Note: The following floating-point exceptions are signalling: IEEE_OVERFLOW_FLAG
Note: The following floating-point exceptions are signalling: IEEE_OVERFLOW_FLAG
Note: The following floating-point exceptions are signalling: IEEE_OVERFLOW_FLAG
Note: The following floating-point exceptions are signalling: IEEE_INVALID_FLAG IEEE_OVERFLOW_FLAG
Note: The following floating-point exceptions are signalling: IEEE_OVERFLOW_FLAG
Note: The following floating-point exceptions are signalling: IEEE_OVERFLOW_FLAG
Note: The following floating-point exceptions are signalling: IEEE_OVERFLOW_FLAG
Note: The following floating-point exceptions are signalling: IEEE_OVERFLOW_FLAG
Note: The following floating-point exceptions are signalling: IEEE_OVERFLOW_FLAG
Note: The following floating-point exceptions are signalling: IEEE_OVERFLOW_FLAG
Note: The following floating-point exceptions are signalling: IEEE_OVERFLOW_FLAG
Note: The following floating-point exceptions are signalling: IEEE_OVERFLOW_FLAG
Note: The following floating-point exceptions are signalling: IEEE_OVERFLOW_FLAG
Note: The following floating-point exceptions are signalling: IEEE_OVERFLOW_FLAG
Note: The following floating-point exceptions are signalling: IEEE_OVERFLOW_FLAG
Note: The following floating-point exceptions are signalling: IEEE_OVERFLOW_FLAG
Note: The following floating-point exceptions are signalling: IEEE_OVERFLOW_FLAG
Note: The following floating-point exceptions are signalling: IEEE_OVERFLOW_FLAG
Note: The following floating-point exceptions are signalling: IEEE_OVERFLOW_FLAG
Note: The following floating-point exceptions are signalling: IEEE_OVERFLOW_FLAG
Note: The following floating-point exceptions are signalling: IEEE_OVERFLOW_FLAG
Note: The following floating-point exceptions are signalling: IEEE_OVERFLOW_FLAG
Note: The following floating-point exceptions are signalling: IEEE_OVERFLOW_FLAG
Note: The following floating-point exceptions are signalling: IEEE_OVERFLOW_FLAG
Note: The following floating-point exceptions are signalling: IEEE_OVERFLOW_FLAG
Note: The following floating-point exceptions are signalling: IEEE_OVERFLOW_FLAG
Note: The following floating-point exceptions are signalling: IEEE_OVERFLOW_FLAG
Note: The following floating-point exceptions are signalling: IEEE_INVALID_FLAG IEEE_OVERFLOW_FLAG
Note: The following floating-point exceptions are signalling: IEEE_OVERFLOW_FLAG
Note: The following floating-point exceptions are signalling: IEEE_OVERFLOW_FLAG
Note: The following floating-point exceptions are signalling: IEEE_OVERFLOW_FLAG
Note: The following floating-point exceptions are signalling: IEEE_OVERFLOW_FLAG
Note: The following floating-point exceptions are signalling: IEEE_OVERFLOW_FLAG
Note: The following floating-point exceptions are signalling: IEEE_OVERFLOW_FLAG
Note: The following floating-point exceptions are signalling: IEEE_OVERFLOW_FLAG
Note: The following floating-point exceptions are signalling: IEEE_OVERFLOW_FLAG
Note: The following floating-point exceptions are signalling: IEEE_OVERFLOW_FLAG
