   24   24   60    1
  0.8144829E+01  0.6078000E-09  0.6078000E-09  0.6110000E-09  0.5000000E-15
   1.0000000000000000E-004
  CAR 
 Name                                    
     96     60     64

  0.3742002E-15  0.3742002E-15  0.3742002E-15  0.1371742E-02
    1       -5.329409   1.000000
    2       -2.830990   1.000000
    3       -2.360421   1.000000
    4       -2.360415   1.000000
    5       -2.360412   1.000000
    6       -1.476166   1.000000
    7       -1.476164   1.000000
    8       -1.476160   1.000000
    9       -0.637183   1.000000
   10       -0.637177   1.000000
   11       -0.637174   1.000000
   12        0.472999   1.000000
   13        1.177042   1.000000
   14        1.177045   1.000000
   15        1.177049   1.000000
   16        2.543332   1.000000
   17        2.543333   1.000000
   18        2.543335   1.000000
   19        3.231154   1.000000
   20        3.231156   1.000000
   21        3.231157   1.000000
   22        3.846483   1.000000
   23        3.846488   1.000000
   24        3.846490   1.000000
   25        4.679582   1.000000
   26        4.679586   1.000000
   27        4.843463   1.000000
   28        4.843464   1.000000
   29        4.843467   1.000000
   30        5.236096   1.000000
   31        5.236098   1.000000
   32        5.236101   1.000000
   33        5.429732   1.000000
   34        5.808280   1.000000
   35        5.808285   1.000000
   36        5.808287   1.000000
   37        6.661134   1.000000
   38        6.661137   1.000000
   39        6.758267   1.000000
   40        7.782523   1.000000
   41        7.782526   1.000000
   42        7.815506   1.000000
   43        7.815512   1.000000
   44        8.877584   1.000000
   45        8.877586   1.000000
   46        8.877588   1.000000
   47        9.704369   1.000000
   48        9.704371   1.000000
   49       11.002413  -0.000000
   50       11.319713  -0.000000
   51       11.319716  -0.000000
   52       11.319717  -0.000000
   53       11.713331  -0.000000
   54       11.713514  -0.000000
   55       11.714316  -0.000000
   56       12.172442  -0.000000
   57       12.172446  -0.000000
   58       12.172447  -0.000000
   59       12.258053  -0.000000
   60       14.073680   0.000000
   61       14.089807   0.000000
   62       14.179730   0.000000
   63       14.421813   0.000000
   64       14.858584   0.000000

  0.1111111E+00  0.3745146E-15  0.3742002E-15  0.8230453E-02
    1       -5.265573   1.000000
    2       -2.823689   1.000000
    3       -2.386884   1.000000
    4       -2.334299   1.000000
    5       -2.334294   1.000000
    6       -1.922784   1.000000
    7       -1.572245   1.000000
    8       -1.572243   1.000000
    9       -0.462256   1.000000
   10       -0.462251   1.000000
   11       -0.168957   1.000000
   12        0.563755   1.000000
   13        1.050299   1.000000
   14        1.050302   1.000000
   15        1.288504   1.000000
   16        2.603347   1.000000
   17        2.644664   1.000000
   18        2.644666   1.000000
   19        3.219328   1.000000
   20        3.297826   1.000000
   21        3.297828   1.000000
   22        3.895915   1.000000
   23        3.899855   1.000000
   24        3.899860   1.000000
   25        4.282278   1.000000
   26        4.282279   1.000000
   27        4.530078   1.000000
   28        4.710866   1.000000
   29        4.912487   1.000000
   30        5.236054   1.000000
   31        5.469094   1.000000
   32        5.697065   1.000000
   33        5.718656   1.000000
   34        5.718661   1.000000
   35        5.798902   1.000000
   36        5.798903   1.000000
   37        6.127220   1.000000
   38        6.146262   1.000000
   39        6.547588   1.000000
   40        7.601263   1.000000
   41        7.866047   1.000000
   42        8.316565   1.000000
   43        8.401172   1.000000
   44        8.573363   1.000000
   45        8.573366   1.000000
   46        8.900265   1.000000
   47        9.676820   1.000000
   48        9.977676   1.000000
   49       11.034227  -0.000000
   50       11.165245  -0.000000
   51       11.165247  -0.000000
   52       11.271060  -0.000000
   53       11.524262  -0.000000
   54       11.766088  -0.000000
   55       11.768375  -0.000000
   56       12.226297  -0.000000
   57       12.225736  -0.000000
   58       12.247342  -0.000000
   59       12.334199  -0.000000
   60       12.467948  -0.000000
   61       12.494454  -0.000000
   62       12.560448  -0.000000
   63       12.565433  -0.000000
   64       14.943194   0.000000

  0.2222222E+00  0.3685699E-15  0.3742002E-15  0.8230453E-02
    1       -5.076312   1.000000
    2       -2.801213   1.000000
    3       -2.594834   1.000000
    4       -2.455543   1.000000
    5       -2.264126   1.000000
    6       -2.264121   1.000000
    7       -1.736652   1.000000
    8       -1.736650   1.000000
    9       -0.068982   1.000000
   10       -0.068979   1.000000
   11        0.569333   1.000000
   12        0.776606   1.000000
   13        0.776610   1.000000
   14        0.829615   1.000000
   15        1.609463   1.000000
   16        2.782824   1.000000
   17        2.849814   1.000000
   18        2.849816   1.000000
   19        3.131614   1.000000
   20        3.491261   1.000000
   21        3.491263   1.000000
   22        3.573072   1.000000
   23        3.573073   1.000000
   24        4.043875   1.000000
   25        4.049487   1.000000
   26        4.049492   1.000000
   27        4.118897   1.000000
   28        4.797331   1.000000
   29        5.103577   1.000000
   30        5.230289   1.000000
   31        5.253409   1.000000
   32        5.373439   1.000000
   33        5.468808   1.000000
   34        5.468813   1.000000
   35        5.477920   1.000000
   36        5.571621   1.000000
   37        6.076805   1.000000
   38        6.523234   1.000000
   39        6.523235   1.000000
   40        7.143642   1.000000
   41        7.945946   1.000000
   42        7.945949   1.000000
   43        8.113333   1.000000
   44        8.966250   1.000000
   45        9.101370   1.000000
   46        9.379838   1.000000
   47        9.598552   1.000000
   48       10.622349  -0.001054
   49       10.676888  -0.000064
   50       10.676890  -0.000064
   51       11.029234  -0.000000
   52       11.127424  -0.000000
   53       11.154724  -0.000000
   54       11.708195  -0.000000
   55       11.753802  -0.000000
   56       11.882377  -0.000000
   57       11.890577  -0.000000
   58       11.984279  -0.000000
   59       12.069700  -0.000000
   60       12.219754  -0.000000
   61       12.283021  -0.000000
   62       12.285594  -0.000000
   63       12.364618  -0.000000
   64       12.664613  -0.000000

  0.3333333E+00  0.4145315E-15  0.3742002E-15  0.8230453E-02
    1       -4.768117   1.000000
    2       -3.246421   1.000000
    3       -2.762136   1.000000
    4       -2.543559   1.000000
    5       -2.175801   1.000000
    6       -2.175795   1.000000
    7       -1.866078   1.000000
    8       -1.866076   1.000000
    9        0.407586   1.000000
   10        0.407589   1.000000
   11        0.505833   1.000000
   12        0.505836   1.000000
   13        1.249850   1.000000
   14        1.336366   1.000000
   15        2.109471   1.000000
   16        2.850045   1.000000
   17        2.898619   1.000000
   18        2.898621   1.000000
   19        3.034022   1.000000
   20        3.034024   1.000000
   21        3.080614   1.000000
   22        3.529439   1.000000
   23        3.790187   1.000000
   24        3.790189   1.000000
   25        4.255476   1.000000
   26        4.255481   1.000000
   27        4.288877   1.000000
   28        4.361015   1.000000
   29        4.650730   1.000000
   30        4.917742   1.000000
   31        5.108535   1.000000
   32        5.108539   1.000000
   33        5.204265   1.000000
   34        5.364424   1.000000
   35        5.400927   1.000000
   36        5.547904   1.000000
   37        5.684005   1.000000
   38        6.573316   1.000000
   39        7.258162   1.000000
   40        7.258164   1.000000
   41        7.334516   1.000000
   42        7.334519   1.000000
   43        8.514066   1.000000
   44        9.069377   1.000000
   45        9.481528   1.000000
   46        9.876689   1.000000
   47        9.959717   1.000000
   48        9.959719   1.000000
   49       10.374487   0.464306
   50       10.423504   0.112632
   51       11.044725  -0.000000
   52       11.079700  -0.000000
   53       11.089204  -0.000000
   54       11.274965  -0.000000
   55       11.386057  -0.000000
   56       11.485209  -0.000000
   57       11.887187  -0.000000
   58       11.952237  -0.000000
   59       11.953403  -0.000000
   60       12.044716  -0.000000
   61       12.180416  -0.000000
   62       12.211956  -0.000000
   63       12.283390  -0.000000
   64       12.495889  -0.000000

  0.4444444E+00  0.3784822E-15  0.3742002E-15  0.8230453E-02
    1       -4.351161   1.000000
    2       -3.838633   1.000000
    3       -2.705152   1.000000
    4       -2.630726   1.000000
    5       -2.111887   1.000000
    6       -2.111881   1.000000
    7       -1.933884   1.000000
    8       -1.933883   1.000000
    9        0.339556   1.000000
   10        0.339559   1.000000
   11        0.824716   1.000000
   12        0.824718   1.000000
   13        1.783844   1.000000
   14        2.099063   1.000000
   15        2.358104   1.000000
   16        2.383982   1.000000
   17        2.383985   1.000000
   18        2.755222   1.000000
   19        2.839303   1.000000
   20        3.137442   1.000000
   21        3.137444   1.000000
   22        3.494267   1.000000
   23        3.515966   1.000000
   24        4.019871   1.000000
   25        4.137277   1.000000
   26        4.137280   1.000000
   27        4.423521   1.000000
   28        4.423527   1.000000
   29        4.627590   1.000000
   30        4.722828   1.000000
   31        4.722832   1.000000
   32        5.042435   1.000000
   33        5.052606   1.000000
   34        5.142873   1.000000
   35        5.601485   1.000000
   36        5.602746   1.000000
   37        5.717969   1.000000
   38        6.025070   1.000000
   39        6.946182   1.000000
   40        6.946185   1.000000
   41        7.923455   1.000000
   42        7.923457   1.000000
   43        9.049044   1.000000
   44        9.199429   1.000000
   45        9.261221   1.000000
   46        9.261222   1.000000
   47        9.342445   1.000000
   48        9.686428   1.000000
   49       10.617605  -0.001303
   50       10.693635  -0.000024
   51       10.703545  -0.000013
   52       11.025893  -0.000000
   53       11.163142  -0.000000
   54       11.334482  -0.000000
   55       11.455551  -0.000000
   56       11.464134  -0.000000
   57       11.680541  -0.000000
   58       11.963507  -0.000000
   59       12.056268  -0.000000
   60       12.074443  -0.000000
   61       12.141646  -0.000000
   62       12.361529  -0.000000
   63       12.382082  -0.000000
   64       12.437733  -0.000000

  0.1111111E+00  0.1111111E+00  0.3742002E-15  0.8230453E-02
    1       -5.139007   1.000000
    2       -2.808752   1.000000
    3       -2.389338   1.000000
    4       -2.389335   1.000000
    5       -2.225879   1.000000
    6       -2.211467   1.000000
    7       -2.211465   1.000000
    8       -1.252392   1.000000
    9       -0.567801   1.000000
   10        0.217259   1.000000
   11        0.217261   1.000000
   12        0.653147   1.000000
   13        0.742213   1.000000
   14        1.274672   1.000000
   15        1.274676   1.000000
   16        2.758966   1.000000
   17        2.758966   1.000000
   18        2.800670   1.000000
   19        3.263626   1.000000
   20        3.263628   1.000000
   21        3.496079   1.000000
   22        3.513079   1.000000
   23        3.992729   1.000000
   24        3.992732   1.000000
   25        4.013064   1.000000
   26        4.257124   1.000000
   27        4.382894   1.000000
   28        4.382896   1.000000
   29        4.759350   1.000000
   30        5.471648   1.000000
   31        5.523101   1.000000
   32        5.523103   1.000000
   33        5.543497   1.000000
   34        5.587202   1.000000
   35        5.601854   1.000000
   36        5.831477   1.000000
   37        5.831478   1.000000
   38        6.215655   1.000000
   39        6.511181   1.000000
   40        7.282599   1.000000
   41        7.889527   1.000000
   42        8.032809   1.000000
   43        8.639989   1.000000
   44        8.639990   1.000000
   45        8.882302   1.000000
   46        9.112928   1.000000
   47        9.613379   1.000000
   48       10.439362   0.043316
   49       10.862358  -0.000000
   50       10.976407  -0.000000
   51       10.976408  -0.000000
   52       11.096842  -0.000000
   53       11.396600  -0.000000
   54       11.396603  -0.000000
   55       12.000727  -0.000000
   56       12.101193  -0.000000
   57       12.131436  -0.000000
   58       12.146469  -0.000000
   59       12.151513  -0.000000
   60       12.163587  -0.000000
   61       12.300004  -0.000000
   62       12.636812  -0.000000
   63       12.918675  -0.000000
   64       12.982885  -0.000000

  0.2222222E+00  0.1111111E+00  0.3742002E-15  0.1646091E-01
    1       -4.890174   1.000000
    2       -2.882697   1.000000
    3       -2.777586   1.000000
    4       -2.477584   1.000000
    5       -2.420297   1.000000
    6       -2.359490   1.000000
    7       -2.072918   1.000000
    8       -1.182000   1.000000
    9       -0.279724   1.000000
   10        0.234327   1.000000
   11        0.657758   1.000000
   12        0.971253   1.000000
   13        1.086523   1.000000
   14        1.124341   1.000000
   15        1.696037   1.000000
   16        2.747994   1.000000
   17        2.959665   1.000000
   18        2.986591   1.000000
   19        2.996576   1.000000
   20        3.092921   1.000000
   21        3.414773   1.000000
   22        3.744915   1.000000
   23        3.774475   1.000000
   24        3.796646   1.000000
   25        4.159885   1.000000
   26        4.178016   1.000000
   27        4.223114   1.000000
   28        4.551703   1.000000
   29        4.631673   1.000000
   30        4.825359   1.000000
   31        4.940417   1.000000
   32        5.237809   1.000000
   33        5.328502   1.000000
   34        5.343227   1.000000
   35        5.673676   1.000000
   36        5.739530   1.000000
   37        5.882586   1.000000
   38        6.539424   1.000000
   39        6.773076   1.000000
   40        7.163414   1.000000
   41        7.258008   1.000000
   42        8.108031   1.000000
   43        8.360690   1.000000
   44        8.764956   1.000000
   45        9.486856   1.000000
   46        9.592188   1.000000
   47       10.065777   1.000073
   48       10.301441   0.955700
   49       10.369672   0.505013
   50       10.684629  -0.000041
   51       10.794716  -0.000000
   52       11.156859  -0.000000
   53       11.217749  -0.000000
   54       11.313182  -0.000000
   55       11.350121  -0.000000
   56       11.615858  -0.000000
   57       11.713145  -0.000000
   58       11.974008  -0.000000
   59       12.006289  -0.000000
   60       12.141302  -0.000000
   61       12.163417  -0.000000
   62       12.219986  -0.000000
   63       12.388475  -0.000000
   64       12.711698  -0.000000

  0.3333333E+00  0.1111111E+00  0.3742002E-15  0.1646091E-01
    1       -4.527242   1.000000
    2       -3.507752   1.000000
    3       -2.728273   1.000000
    4       -2.573429   1.000000
    5       -2.545698   1.000000
    6       -2.323668   1.000000
    7       -1.916891   1.000000
    8       -1.232001   1.000000
    9       -0.100351   1.000000
   10        0.226005   1.000000
   11        0.982823   1.000000
   12        1.083557   1.000000
   13        1.568310   1.000000
   14        1.726135   1.000000
   15        2.044732   1.000000
   16        2.277360   1.000000
   17        2.690527   1.000000
   18        3.068904   1.000000
   19        3.155983   1.000000
   20        3.180648   1.000000
   21        3.197812   1.000000
   22        3.325254   1.000000
   23        3.620228   1.000000
   24        3.781391   1.000000
   25        4.170082   1.000000
   26        4.314887   1.000000
   27        4.332608   1.000000
   28        4.454031   1.000000
   29        4.475084   1.000000
   30        4.727530   1.000000
   31        4.869073   1.000000
   32        4.930891   1.000000
   33        4.979038   1.000000
   34        5.253139   1.000000
   35        5.406263   1.000000
   36        5.813801   1.000000
   37        5.921586   1.000000
   38        6.218123   1.000000
   39        6.573245   1.000000
   40        7.177434   1.000000
   41        7.650615   1.000000
   42        8.032141   1.000000
   43        8.834620   1.000000
   44        8.933067   1.000000
   45        9.316659   1.000000
   46        9.597900   1.000000
   47        9.693263   1.000000
   48       10.104582   1.000559
   49       10.309107   0.925142
   50       10.448616   0.014291
   51       10.742013  -0.000001
   52       11.077571  -0.000000
   53       11.312060  -0.000000
   54       11.338973  -0.000000
   55       11.377074  -0.000000
   56       11.387179  -0.000000
   57       11.699495  -0.000000
   58       11.750890  -0.000000
   59       11.803340  -0.000000
   60       11.926373  -0.000000
   61       12.134386  -0.000000
   62       12.210338  -0.000000
   63       12.456529  -0.000000
   64       12.840662  -0.000000

  0.4444444E+00  0.1111111E+00  0.3742002E-15  0.8230453E-02
    1       -4.061698   1.000000
    2       -4.061692   1.000000
    3       -2.659631   1.000000
    4       -2.659626   1.000000
    5       -2.587441   1.000000
    6       -2.307922   1.000000
    7       -1.844049   1.000000
    8       -1.256273   1.000000
    9       -0.235574   1.000000
   10        0.555730   1.000000
   11        0.927445   1.000000
   12        1.295867   1.000000
   13        1.656199   1.000000
   14        2.134688   1.000000
   15        2.134693   1.000000
   16        2.461225   1.000000
   17        2.461228   1.000000
   18        2.944654   1.000000
   19        2.983622   1.000000
   20        2.983626   1.000000
   21        3.107266   1.000000
   22        3.247942   1.000000
   23        3.736813   1.000000
   24        3.770743   1.000000
   25        3.770749   1.000000
   26        4.410304   1.000000
   27        4.565065   1.000000
   28        4.592099   1.000000
   29        4.609811   1.000000
   30        4.776617   1.000000
   31        4.816122   1.000000
   32        4.816125   1.000000
   33        4.843531   1.000000
   34        4.843536   1.000000
   35        5.729873   1.000000
   36        5.729876   1.000000
   37        5.906090   1.000000
   38        5.906095   1.000000
   39        6.322037   1.000000
   40        7.470140   1.000000
   41        7.501776   1.000000
   42        8.657140   1.000000
   43        9.086349   1.000000
   44        9.124422   1.000000
   45        9.124427   1.000000
   46        9.241193   1.000000
   47        9.429450   1.000000
   48        9.429454   1.000000
   49       10.439070   0.044366
   50       10.439074   0.044354
   51       11.009680  -0.000000
   52       11.009683  -0.000000
   53       11.231020  -0.000000
   54       11.231023  -0.000000
   55       11.337148  -0.000000
   56       11.589240  -0.000000
   57       11.590596  -0.000000
   58       11.678678  -0.000000
   59       12.064715  -0.000000
   60       12.065060  -0.000000
   61       12.144562  -0.000000
   62       12.194296  -0.000000
   63       12.326349  -0.000000
   64       12.446136  -0.000000

  0.2222222E+00  0.2222222E+00  0.3742002E-15  0.8230453E-02
    1       -4.586333   1.000000
    2       -3.074163   1.000000
    3       -3.074161   1.000000
    4       -2.735216   1.000000
    5       -2.475013   1.000000
    6       -2.475010   1.000000
    7       -1.823536   1.000000
    8       -0.623268   1.000000
    9       -0.355571   1.000000
   10       -0.276919   1.000000
   11        1.382594   1.000000
   12        1.382597   1.000000
   13        1.495757   1.000000
   14        1.649194   1.000000
   15        1.649199   1.000000
   16        1.937493   1.000000
   17        3.045698   1.000000
   18        3.120407   1.000000
   19        3.120408   1.000000
   20        3.238403   1.000000
   21        3.238405   1.000000
   22        3.293430   1.000000
   23        3.851882   1.000000
   24        4.002124   1.000000
   25        4.002127   1.000000
   26        4.145941   1.000000
   27        4.346354   1.000000
   28        4.346357   1.000000
   29        4.452026   1.000000
   30        4.504731   1.000000
   31        4.755435   1.000000
   32        5.118357   1.000000
   33        5.170197   1.000000
   34        5.170198   1.000000
   35        5.334413   1.000000
   36        5.867614   1.000000
   37        6.283737   1.000000
   38        6.434139   1.000000
   39        6.503581   1.000000
   40        6.503582   1.000000
   41        8.031544   1.000000
   42        8.355189   1.000000
   43        8.355191   1.000000
   44        8.768244   1.000000
   45        9.264523   1.000000
   46       10.013269   1.000003
   47       10.013272   1.000003
   48       10.023960   1.000006
   49       10.185509   1.012671
   50       10.670854  -0.000090
   51       10.670857  -0.000090
   52       10.766023  -0.000000
   53       10.953101  -0.000000
   54       11.361632  -0.000000
   55       11.372595  -0.000000
   56       11.454881  -0.000000
   57       11.887007  -0.000000
   58       11.887463  -0.000000
   59       11.914269  -0.000000
   60       11.953701  -0.000000
   61       12.045006  -0.000000
   62       12.074533  -0.000000
   63       12.078392  -0.000000
   64       13.199682   0.000000

  0.3333333E+00  0.2222222E+00  0.3742002E-15  0.1646091E-01
    1       -4.173907   1.000000
    2       -3.664929   1.000000
    3       -3.169626   1.000000
    4       -2.670958   1.000000
    5       -2.583151   1.000000
    6       -2.467376   1.000000
    7       -1.577572   1.000000
    8       -0.661296   1.000000
    9       -0.545616   1.000000
   10        0.113812   1.000000
   11        1.224628   1.000000
   12        1.599270   1.000000
   13        1.692317   1.000000
   14        2.023096   1.000000
   15        2.074321   1.000000
   16        2.305982   1.000000
   17        2.604528   1.000000
   18        2.717182   1.000000
   19        3.054764   1.000000
   20        3.091539   1.000000
   21        3.161145   1.000000
   22        3.394589   1.000000
   23        3.570112   1.000000
   24        3.623819   1.000000
   25        3.981453   1.000000
   26        4.297673   1.000000
   27        4.469766   1.000000
   28        4.490923   1.000000
   29        4.568774   1.000000
   30        4.609567   1.000000
   31        4.822076   1.000000
   32        4.855777   1.000000
   33        4.944470   1.000000
   34        5.045092   1.000000
   35        5.383711   1.000000
   36        5.788922   1.000000
   37        5.883235   1.000000
   38        6.121851   1.000000
   39        6.360029   1.000000
   40        6.919233   1.000000
   41        8.067715   1.000000
   42        8.656306   1.000000
   43        8.813605   1.000000
   44        8.973255   1.000000
   45        9.314352   1.000000
   46        9.518306   1.000000
   47        9.547874   1.000000
   48        9.965611   1.000000
   49        9.990424   1.000001
   50       10.269932   1.025470
   51       10.621402  -0.001100
   52       10.809999  -0.000000
   53       11.084286  -0.000000
   54       11.377792  -0.000000
   55       11.441773  -0.000000
   56       11.546181  -0.000000
   57       11.582135  -0.000000
   58       11.752274  -0.000000
   59       11.902544  -0.000000
   60       11.903350  -0.000000
   61       11.935289  -0.000000
   62       11.989218  -0.000000
   63       12.184328  -0.000000
   64       12.807611  -0.000000

  0.3333333E+00  0.3333333E+00  0.3742002E-15  0.2743484E-02
    1       -3.717373   1.000000
    2       -3.717369   1.000000
    3       -3.717364   1.000000
    4       -2.584870   1.000000
    5       -2.584866   1.000000
    6       -2.584863   1.000000
    7       -1.157427   1.000000
    8       -1.157423   1.000000
    9        0.012131   1.000000
   10        0.012134   1.000000
   11        0.685789   1.000000
   12        2.231520   1.000000
   13        2.231524   1.000000
   14        2.231527   1.000000
   15        2.305676   1.000000
   16        2.305682   1.000000
   17        2.305684   1.000000
   18        2.578059   1.000000
   19        2.578063   1.000000
   20        2.578066   1.000000
   21        3.099213   1.000000
   22        3.666820   1.000000
   23        3.666824   1.000000
   24        3.666827   1.000000
   25        4.114071   1.000000
   26        4.114074   1.000000
   27        4.114077   1.000000
   28        4.675311   1.000000
   29        4.675313   1.000000
   30        4.675315   1.000000
   31        4.711629   1.000000
   32        4.711632   1.000000
   33        5.294146   1.000000
   34        5.294149   1.000000
   35        5.370356   1.000000
   36        5.370358   1.000000
   37        5.370359   1.000000
   38        6.525187   1.000000
   39        6.525189   1.000000
   40        6.525192   1.000000
   41        8.530561   1.000000
   42        8.530565   1.000000
   43        8.530567   1.000000
   44        9.364670   1.000000
   45        9.364672   1.000000
   46        9.817091   1.000000
   47        9.817096   1.000000
   48        9.817098   1.000000
   49        9.924552   1.000000
   50        9.924554   1.000000
   51        9.924556   1.000000
   52       10.648480  -0.000300
   53       11.347108  -0.000000
   54       11.347113  -0.000000
   55       11.347115  -0.000000
   56       11.652719  -0.000000
   57       11.652721  -0.000000
   58       11.653347  -0.000000
   59       11.736190  -0.000000
   60       11.736195  -0.000000
   61       12.115918  -0.000000
   62       12.725457  -0.000000
   63       12.777793  -0.000000
   64       12.777862  -0.000000

  0.3742002E-15  0.3742002E-15  0.1111111E+00  0.2743484E-02
    1       -5.278889   1.000000
    2       -2.970467   1.000000
    3       -2.321021   1.000000
    4       -2.321015   1.000000
    5       -2.321013   1.000000
    6       -1.423684   1.000000
    7       -1.423682   1.000000
    8       -1.423678   1.000000
    9       -0.711189   1.000000
   10       -0.711183   1.000000
   11       -0.711181   1.000000
   12        0.652779   1.000000
   13        1.008442   1.000000
   14        1.008445   1.000000
   15        1.008448   1.000000
   16        2.595014   1.000000
   17        2.595015   1.000000
   18        2.595017   1.000000
   19        3.398017   1.000000
   20        3.398019   1.000000
   21        3.398020   1.000000
   22        3.927638   1.000000
   23        3.927643   1.000000
   24        3.927645   1.000000
   25        4.719882   1.000000
   26        4.719886   1.000000
   27        4.851773   1.000000
   28        4.851774   1.000000
   29        4.851776   1.000000
   30        5.077233   1.000000
   31        5.077234   1.000000
   32        5.077237   1.000000
   33        5.157128   1.000000
   34        5.761518   1.000000
   35        5.761524   1.000000
   36        5.761525   1.000000
   37        6.719417   1.000000
   38        6.719420   1.000000
   39        6.998083   1.000000
   40        7.172312   1.000000
   41        7.172316   1.000000
   42        8.476972   1.000000
   43        8.476976   1.000000
   44        9.091459   1.000000
   45        9.091460   1.000000
   46        9.091462   1.000000
   47        9.527913   1.000000
   48        9.527915   1.000000
   49       10.853969  -0.000000
   50       11.330802  -0.000000
   51       11.330805  -0.000000
   52       11.330806  -0.000000
   53       11.700583  -0.000000
   54       11.700586  -0.000000
   55       11.700590  -0.000000
   56       11.793108  -0.000000
   57       11.793130  -0.000000
   58       11.793133  -0.000000
   59       11.949709  -0.000000
   60       11.949717  -0.000000
   61       11.949742  -0.000000
   62       12.954638  -0.000000
   63       14.270791   0.000000
   64       14.823192   0.000000

  0.1111111E+00  0.3745146E-15  0.1111111E+00  0.1646091E-01
    1       -5.215610   1.000000
    2       -2.956802   1.000000
    3       -2.354099   1.000000
    4       -2.296791   1.000000
    5       -2.296785   1.000000
    6       -1.895934   1.000000
    7       -1.536297   1.000000
    8       -1.536295   1.000000
    9       -0.518909   1.000000
   10       -0.518904   1.000000
   11       -0.215150   1.000000
   12        0.736180   1.000000
   13        0.921110   1.000000
   14        0.921114   1.000000
   15        1.119758   1.000000
   16        2.650335   1.000000
   17        2.650337   1.000000
   18        2.654457   1.000000
   19        3.393398   1.000000
   20        3.466551   1.000000
   21        3.466553   1.000000
   22        3.970011   1.000000
   23        3.973670   1.000000
   24        3.973674   1.000000
   25        4.257904   1.000000
   26        4.257906   1.000000
   27        4.567275   1.000000
   28        4.748223   1.000000
   29        4.920167   1.000000
   30        5.084536   1.000000
   31        5.179959   1.000000
   32        5.646276   1.000000
   33        5.646278   1.000000
   34        5.654171   1.000000
   35        5.676252   1.000000
   36        5.676257   1.000000
   37        6.107647   1.000000
   38        6.144693   1.000000
   39        6.785348   1.000000
   40        7.371121   1.000000
   41        7.568286   1.000000
   42        8.669827   1.000000
   43        8.807356   1.000000
   44        8.807359   1.000000