   52   52    1    1
  0.2272233E+02  0.8645320E-09  0.6085000E-09  0.2593596E-08  0.5000000E-15
   1.0000000000000000E-004
  CAR 
 Name                                    
    192    149    128

  0.3742002E-15  0.3742002E-15  0.3742002E-15  0.3367003E-02
    1      -13.796742   1.000000
    2      -12.528618   1.000000
    3      -12.300953   1.000000
    4      -11.757764   1.000000
    5      -11.518832   1.000000
    6      -11.053197   1.000000
    7      -10.966308   1.000000
    8      -10.943489   1.000000
    9      -10.940840   1.000000
   10      -10.500863   1.000000
   11      -10.500487   1.000000
   12      -10.348662   1.000000
   13      -10.111530   1.000000
   14      -10.106399   1.000000
   15       -9.608506   1.000000
   16       -9.605736   1.000000
   17       -9.111089   1.000000
   18       -9.011906   1.000000
   19       -9.000469   1.000000
   20       -8.383611   1.000000
   21       -8.379147   1.000000
   22       -8.319650   1.000000
   23       -8.304163   1.000000
   24       -7.932185   1.000000
   25       -7.834206   1.000000
   26       -7.833523   1.000000
   27       -7.426337   1.000000
   28       -7.358131   1.000000
   29       -6.999545   1.000000
   30       -6.397163   1.000000
   31       -6.385130   1.000000
   32       -6.372460   1.000000
   33       -6.072136   1.000000
   34       -6.036274   1.000000
   35       -5.804407   1.000000
   36       -5.773640   1.000000
   37       -5.388546   1.000000
   38       -5.315509   1.000000
   39       -5.296352   1.000000
   40       -5.261241   1.000000
   41       -5.154038   1.000000
   42       -5.126420   1.000000
   43       -4.918598   1.000000
   44       -4.819846   1.000000
   45       -4.749591   1.000000
   46       -4.652837   1.000000
   47       -4.605608   1.000000
   48       -4.590276   1.000000
   49       -4.474305   1.000000
   50       -4.436083   1.000000
   51       -4.399364   1.000000
   52       -4.381722   1.000000
   53       -4.301740   1.000000
   54       -4.141972   1.000000
   55       -4.130880   1.000000
   56       -3.995335   1.000000
   57       -3.977823   1.000000
   58       -3.889777   1.000000
   59       -3.872764   1.000000
   60       -3.809171   1.000000
   61       -3.726939   1.000000
   62       -3.635377   1.000000
   63       -3.598798   1.000000
   64       -3.371141   1.000000
   65       -3.320410   1.000000
   66       -3.302159   1.000000
   67       -3.262786   1.000000
   68       -3.194013   1.000000
   69       -3.135546   1.000000
   70       -3.133624   1.000000
   71       -3.057130   1.000000
   72       -3.005428   1.000000
   73       -2.982719   1.000000
   74       -2.879879   1.000000
   75       -2.538992   1.000000
   76       -2.214265   1.000000
   77       -2.078991   1.000000
   78       -2.054622   1.000000
   79       -1.985040   1.000000
   80       -1.875786   1.000000
   81       -1.765776   1.000000
   82       -1.576374   1.000000
   83       -1.456994   1.000000
   84       -1.444520   1.000000
   85       -1.289770   1.000000
   86       -0.937174   1.000000
   87       -0.831581   1.000000
   88       -0.784788   1.000000
   89       -0.718792   1.000000
   90       -0.202653   1.000000
   91        0.001209   1.000233
   92        0.107925   1.015880
   93        0.173931   1.032791
   94        0.214092   0.960451
   95        0.310513   0.286075
   96        0.317706   0.233726
   97        0.324810   0.186106
   98        0.635301  -0.000004
   99        0.653173  -0.000001
  100        0.774529  -0.000000
  101        0.793830  -0.000000
  102        0.802026  -0.000000
  103        0.807036  -0.000000
  104        0.902985  -0.000000
  105        1.098955  -0.000000
  106        1.135153  -0.000000
  107        1.140320  -0.000000
  108        1.363429  -0.000000
  109        1.457175  -0.000000
  110        1.521758  -0.000000
  111        1.622167  -0.000000
  112        1.639920  -0.000000
  113        1.660073  -0.000000
  114        1.713576  -0.000000
  115        1.873254  -0.000000
  116        1.885995  -0.000000
  117        1.887887  -0.000000
  118        2.072486  -0.000000
  119        2.102482  -0.000000
  120        2.120016  -0.000000
  121        2.147411  -0.000000
  122        2.172437  -0.000000
  123        2.241519  -0.000000
  124        2.349049  -0.000000
  125        2.451500  -0.000000
  126        2.627965  -0.000000
  127        3.937199   0.000000
  128        4.101018   0.000000

  0.1111111E+00  0.3729374E-15  0.3860503E-15  0.6734007E-02
    1      -13.769698   1.000000
    2      -12.503155   1.000000
    3      -12.416998   1.000000
    4      -11.700359   1.000000
    5      -11.503061   1.000000
    6      -11.101290   1.000000
    7      -10.958218   1.000000
    8      -10.945851   1.000000
    9      -10.926450   1.000000
   10      -10.497644   1.000000
   11      -10.497147   1.000000
   12      -10.348938   1.000000
   13      -10.096405   1.000000
   14      -10.091148   1.000000
   15       -9.605754   1.000000
   16       -9.602740   1.000000
   17       -9.083303   1.000000
   18       -9.027173   1.000000
   19       -9.013605   1.000000
   20       -8.413266   1.000000
   21       -8.412059   1.000000
   22       -8.324623   1.000000
   23       -8.308237   1.000000
   24       -7.887885   1.000000
   25       -7.871093   1.000000
   26       -7.847770   1.000000
   27       -7.488546   1.000000
   28       -7.421633   1.000000
   29       -6.929235   1.000000
   30       -6.375003   1.000000
   31       -6.358743   1.000000
   32       -6.305503   1.000000
   33       -6.044858   1.000000
   34       -6.007705   1.000000
   35       -5.840750   1.000000
   36       -5.770910   1.000000
   37       -5.421804   1.000000
   38       -5.368805   1.000000
   39       -5.268043   1.000000
   40       -5.198004   1.000000
   41       -5.090060   1.000000
   42       -5.086059   1.000000
   43       -5.010926   1.000000
   44       -4.871931   1.000000
   45       -4.703677   1.000000
   46       -4.692785   1.000000
   47       -4.592820   1.000000
   48       -4.550854   1.000000
   49       -4.472210   1.000000
   50       -4.454570   1.000000
   51       -4.386046   1.000000
   52       -4.328009   1.000000
   53       -4.286233   1.000000
   54       -4.129443   1.000000
   55       -4.103398   1.000000
   56       -4.045677   1.000000
   57       -3.972583   1.000000
   58       -3.903725   1.000000
   59       -3.898022   1.000000
   60       -3.809005   1.000000
   61       -3.721678   1.000000
   62       -3.612083   1.000000
   63       -3.607851   1.000000
   64       -3.447483   1.000000
   65       -3.317059   1.000000
   66       -3.271932   1.000000
   67       -3.194312   1.000000
   68       -3.191354   1.000000
   69       -3.143597   1.000000
   70       -3.132530   1.000000
   71       -3.086429   1.000000
   72       -3.003243   1.000000
   73       -2.985040   1.000000
   74       -2.860502   1.000000
   75       -2.586119   1.000000
   76       -2.217536   1.000000
   77       -2.071793   1.000000
   78       -2.049714   1.000000
   79       -1.988986   1.000000
   80       -1.909924   1.000000
   81       -1.791352   1.000000
   82       -1.494683   1.000000
   83       -1.453719   1.000000
   84       -1.431570   1.000000
   85       -1.317723   1.000000
   86       -0.919069   1.000000
   87       -0.833826   1.000000
   88       -0.759760   1.000000
   89       -0.656322   1.000000
   90       -0.266414   1.000000
   91       -0.063580   1.000005
   92        0.099061   1.012515
   93        0.128929   1.025227
   94        0.210200   0.973248
   95        0.243018   0.818267
   96        0.319894   0.218604
   97        0.444707  -0.022858
   98        0.588385  -0.000074
   99        0.592360  -0.000059
  100        0.742512  -0.000000
  101        0.771942  -0.000000
  102        0.854308  -0.000000
  103        0.899885  -0.000000
  104        0.902857  -0.000000
  105        1.086400  -0.000000
  106        1.164989  -0.000000
  107        1.171824  -0.000000
  108        1.431383  -0.000000
  109        1.500110  -0.000000
  110        1.510532  -0.000000
  111        1.620755  -0.000000
  112        1.656428  -0.000000
  113        1.670160  -0.000000
  114        1.740119  -0.000000
  115        1.858220  -0.000000
  116        1.863157  -0.000000
  117        1.864600  -0.000000
  118        2.061987  -0.000000
  119        2.075077  -0.000000
  120        2.115509  -0.000000
  121        2.129278  -0.000000
  122        2.152526  -0.000000
  123        2.221945  -0.000000
  124        2.301087  -0.000000
  125        2.387286  -0.000000
  126        2.473651  -0.000000
  127        2.624664  -0.000000
  128        3.940276   0.000000

  0.2222222E+00  0.3922785E-15  0.3630220E-15  0.6734007E-02
    1      -13.689334   1.000000
    2      -12.654045   1.000000
    3      -12.427828   1.000000
    4      -11.667140   1.000000
    5      -11.458270   1.000000
    6      -11.188741   1.000000
    7      -10.943301   1.000000
    8      -10.939027   1.000000
    9      -10.877778   1.000000
   10      -10.487777   1.000000
   11      -10.486305   1.000000
   12      -10.380837   1.000000
   13      -10.059934   1.000000
   14      -10.054867   1.000000
   15       -9.597406   1.000000
   16       -9.593747   1.000000
   17       -9.062249   1.000000
   18       -9.058376   1.000000
   19       -8.966807   1.000000
   20       -8.519013   1.000000
   21       -8.514926   1.000000
   22       -8.316269   1.000000
   23       -8.304993   1.000000
   24       -7.960322   1.000000
   25       -7.958168   1.000000
   26       -7.737422   1.000000
   27       -7.678115   1.000000
   28       -7.380300   1.000000
   29       -6.867272   1.000000
   30       -6.334559   1.000000
   31       -6.317654   1.000000
   32       -6.127499   1.000000
   33       -6.018088   1.000000
   34       -5.970867   1.000000
   35       -5.935925   1.000000
   36       -5.703716   1.000000
   37       -5.405691   1.000000
   38       -5.371853   1.000000
   39       -5.329970   1.000000
   40       -5.257375   1.000000
   41       -5.005450   1.000000
   42       -4.956768   1.000000
   43       -4.936078   1.000000
   44       -4.832861   1.000000
   45       -4.781402   1.000000
   46       -4.739295   1.000000
   47       -4.722885   1.000000
   48       -4.456151   1.000000
   49       -4.450143   1.000000
   50       -4.431303   1.000000
   51       -4.359472   1.000000
   52       -4.290472   1.000000
   53       -4.253644   1.000000
   54       -4.147196   1.000000
   55       -4.103632   1.000000
   56       -3.983451   1.000000
   57       -3.982740   1.000000
   58       -3.921260   1.000000
   59       -3.918764   1.000000
   60       -3.780028   1.000000
   61       -3.728143   1.000000
   62       -3.641067   1.000000
   63       -3.571647   1.000000
   64       -3.529060   1.000000
   65       -3.364403   1.000000
   66       -3.268620   1.000000
   67       -3.259335   1.000000
   68       -3.164546   1.000000
   69       -3.138002   1.000000
   70       -3.124068   1.000000
   71       -3.081335   1.000000
   72       -2.977182   1.000000
   73       -2.922533   1.000000
   74       -2.781763   1.000000
   75       -2.678871   1.000000
   76       -2.232496   1.000000
   77       -2.174467   1.000000
   78       -2.026395   1.000000
   79       -2.020393   1.000000
   80       -1.931159   1.000000
   81       -1.799312   1.000000
   82       -1.501290   1.000000
   83       -1.449391   1.000000
   84       -1.357995   1.000000
   85       -1.231295   1.000000
   86       -0.885903   1.000000
   87       -0.837468   1.000000
   88       -0.729734   1.000000
   89       -0.421230   1.000000
   90       -0.398313   1.000000
   91       -0.213550   1.000000
   92       -0.074455   1.000002
   93        0.082557   1.007564
   94        0.104701   1.014602
   95        0.308959   0.297868
   96        0.408021  -0.035433
   97        0.463412  -0.014759
   98        0.466577  -0.013556
   99        0.601100  -0.000035
  100        0.740482  -0.000000
  101        0.798762  -0.000000
  102        0.830387  -0.000000
  103        0.921299  -0.000000
  104        0.928507  -0.000000
  105        1.127305  -0.000000
  106        1.315416  -0.000000
  107        1.318160  -0.000000
  108        1.422527  -0.000000
  109        1.549939  -0.000000
  110        1.589996  -0.000000
  111        1.615215  -0.000000
  112        1.692773  -0.000000
  113        1.697335  -0.000000
  114        1.782496  -0.000000
  115        1.799835  -0.000000
  116        1.828968  -0.000000
  117        1.846800  -0.000000
  118        2.025146  -0.000000
  119        2.060166  -0.000000
  120        2.108206  -0.000000
  121        2.123747  -0.000000
  122        2.150077  -0.000000
  123        2.235706  -0.000000
  124        2.278269  -0.000000
  125        2.331791  -0.000000
  126        2.455782  -0.000000
  127        2.483650  -0.000000
  128        3.889748   0.000000

  0.3333333E+00  0.3713828E-15  0.3468587E-15  0.6734007E-02
    1      -13.558028   1.000000
    2      -12.914264   1.000000
    3      -12.306113   1.000000
    4      -11.774290   1.000000
    5      -11.392518   1.000000
    6      -11.228881   1.000000
    7      -10.929179   1.000000
    8      -10.927492   1.000000
    9      -10.797516   1.000000
   10      -10.486164   1.000000
   11      -10.469327   1.000000
   12      -10.449161   1.000000
   13      -10.023592   1.000000
   14      -10.019819   1.000000
   15       -9.582548   1.000000
   16       -9.578388   1.000000
   17       -9.080333   1.000000
   18       -9.078114   1.000000
   19       -8.799698   1.000000
   20       -8.658485   1.000000
   21       -8.653051   1.000000
   22       -8.299647   1.000000
   23       -8.299261   1.000000
   24       -8.056993   1.000000
   25       -8.045930   1.000000
   26       -8.004243   1.000000
   27       -7.437482   1.000000
   28       -7.253680   1.000000
   29       -6.904828   1.000000
   30       -6.352029   1.000000
   31       -6.290162   1.000000
   32       -6.247823   1.000000
   33       -5.957264   1.000000
   34       -5.917601   1.000000
   35       -5.793335   1.000000
   36       -5.587823   1.000000
   37       -5.443658   1.000000
   38       -5.343758   1.000000
   39       -5.276777   1.000000
   40       -5.253251   1.000000
   41       -4.985554   1.000000
   42       -4.977607   1.000000
   43       -4.925568   1.000000
   44       -4.903671   1.000000
   45       -4.783969   1.000000
   46       -4.721061   1.000000
   47       -4.645809   1.000000
   48       -4.441776   1.000000
   49       -4.406726   1.000000
   50       -4.390019   1.000000
   51       -4.345833   1.000000
   52       -4.306372   1.000000
   53       -4.267562   1.000000
   54       -4.128535   1.000000
   55       -4.030532   1.000000
   56       -4.024361   1.000000
   57       -3.966844   1.000000
   58       -3.895220   1.000000
   59       -3.874961   1.000000
   60       -3.764500   1.000000
   61       -3.716514   1.000000
   62       -3.662346   1.000000
   63       -3.631897   1.000000
   64       -3.546132   1.000000
   65       -3.496092   1.000000
   66       -3.296462   1.000000
   67       -3.275764   1.000000
   68       -3.191737   1.000000
   69       -3.139801   1.000000
   70       -3.122104   1.000000
   71       -3.035402   1.000000
   72       -2.974849   1.000000
   73       -2.804152   1.000000
   74       -2.698795   1.000000
   75       -2.653243   1.000000
   76       -2.320080   1.000000
   77       -2.294562   1.000000
   78       -2.152708   1.000000
   79       -2.044271   1.000000
   80       -1.904561   1.000000
   81       -1.732506   1.000000
   82       -1.589131   1.000000
   83       -1.436857   1.000000
   84       -1.353522   1.000000
   85       -0.990223   1.000000
   86       -0.841809   1.000000
   87       -0.808554   1.000000
   88       -0.589574   1.000000
   89       -0.543411   1.000000
   90       -0.374919   1.000000
   91       -0.275911   1.000000
   92       -0.097731   1.000000
   93       -0.071697   1.000003
   94       -0.061086   1.000006
   95        0.322889   0.198550
   96        0.398016  -0.034143
   97        0.405388  -0.035430
   98        0.535276  -0.001106
   99        0.576616  -0.000142
  100        0.792122  -0.000000
  101        0.809334  -0.000000
  102        0.854174  -0.000000
  103        0.858138  -0.000000
  104        1.089926  -0.000000
  105        1.243936  -0.000000
  106        1.251142  -0.000000
  107        1.503397  -0.000000
  108        1.508477  -0.000000
  109        1.607389  -0.000000
  110        1.623521  -0.000000
  111        1.650519  -0.000000
  112        1.709029  -0.000000
  113        1.731035  -0.000000
  114        1.733178  -0.000000
  115        1.760401  -0.000000
  116        1.795811  -0.000000
  117        1.912636  -0.000000
  118        1.990118  -0.000000
  119        2.047534  -0.000000
  120        2.072708  -0.000000
  121        2.100200  -0.000000
  122        2.177879  -0.000000
  123        2.198333  -0.000000
  124        2.213627  -0.000000
  125        2.239444  -0.000000
  126        2.267877  -0.000000
  127        2.448759  -0.000000
  128        3.975903   0.000000

  0.4444444E+00  0.3870091E-15  0.3932070E-15  0.6734007E-02
    1      -13.380024   1.000000
    2      -13.161992   1.000000
    3      -12.144908   1.000000
    4      -11.957617   1.000000
    5      -11.320412   1.000000
    6      -11.261859   1.000000
    7      -10.920369   1.000000
    8      -10.919890   1.000000
    9      -10.694833   1.000000
   10      -10.581308   1.000000
   11      -10.454514   1.000000
   12      -10.452118   1.000000
   13      -10.004636   1.000000
   14      -10.002841   1.000000
   15       -9.566658   1.000000
   16       -9.562652   1.000000
   17       -9.077506   1.000000
   18       -9.075425   1.000000
   19       -8.765493   1.000000
   20       -8.764066   1.000000
   21       -8.575470   1.000000
   22       -8.346314   1.000000
   23       -8.279522   1.000000
   24       -8.242805   1.000000
   25       -8.102787   1.000000
   26       -8.101990   1.000000
   27       -7.215046   1.000000
   28       -7.033485   1.000000
   29       -6.999285   1.000000
   30       -6.661779   1.000000
   31       -6.280064   1.000000
   32       -6.275312   1.000000
   33       -5.889717   1.000000
   34       -5.875995   1.000000
   35       -5.573573   1.000000
   36       -5.474684   1.000000
   37       -5.422727   1.000000
   38       -5.308800   1.000000
   39       -5.272474   1.000000
   40       -5.226877   1.000000
   41       -5.136348   1.000000
   42       -5.135559   1.000000
   43       -4.945895   1.000000
   44       -4.943987   1.000000
   45       -4.659352   1.000000
   46       -4.612850   1.000000
   47       -4.531519   1.000000
   48       -4.505225   1.000000
   49       -4.446127   1.000000
   50       -4.356683   1.000000
   51       -4.337049   1.000000
   52       -4.267945   1.000000
   53       -4.226134   1.000000
   54       -4.146839   1.000000
   55       -4.062423   1.000000
   56       -3.967473   1.000000
   57       -3.929633   1.000000
   58       -3.922914   1.000000
   59       -3.846490   1.000000
   60       -3.746234   1.000000
   61       -3.728987   1.000000
   62       -3.698222   1.000000
   63       -3.649393   1.000000
   64       -3.643352   1.000000
   65       -3.458495   1.000000
   66       -3.370965   1.000000
   67       -3.271962   1.000000
   68       -3.250692   1.000000
   69       -3.117726   1.000000
   70       -3.104857   1.000000
   71       -3.011707   1.000000
   72       -2.990138   1.000000
   73       -2.674678   1.000000
   74       -2.642440   1.000000
   75       -2.529997   1.000000
   76       -2.459536   1.000000
   77       -2.377172   1.000000
   78       -2.299008   1.000000
   79       -2.016451   1.000000
   80       -1.947375   1.000000
   81       -1.687921   1.000000
   82       -1.656184   1.000000
   83       -1.383110   1.000000
   84       -1.343039   1.000000
   85       -0.825945   1.000000
   86       -0.764237   1.000000
   87       -0.754054   1.000000
   88       -0.681766   1.000000
   89       -0.466833   1.000000
   90       -0.430576   1.000000
   91       -0.316755   1.000000
   92       -0.230746   1.000000
   93       -0.214593   1.000000
   94        0.032296   1.001060
   95        0.244625   0.807977
   96        0.403041  -0.035237
   97        0.411676  -0.035106
   98        0.496290  -0.005317
   99        0.765756  -0.000000
  100        0.768875  -0.000000
  101        0.805354  -0.000000
  102        0.816744  -0.000000
  103        0.843851  -0.000000
  104        1.032181  -0.000000
  105        1.399810  -0.000000
  106        1.419454  -0.000000
  107        1.522242  -0.000000
  108        1.609481  -0.000000
  109        1.625793  -0.000000
  110        1.657759  -0.000000
  111        1.671412  -0.000000
  112        1.713430  -0.000000
  113        1.716292  -0.000000
  114        1.756990  -0.000000
  115        1.760271  -0.000000
  116        1.797571  -0.000000
  117        1.809007  -0.000000
  118        1.954444  -0.000000
  119        1.969817  -0.000000
  120        1.992263  -0.000000
  121        2.031892  -0.000000
  122        2.094741  -0.000000
  123        2.174535  -0.000000
  124        2.222108  -0.000000
  125        2.307640  -0.000000
  126        2.339152  -0.000000
  127        2.390377  -0.000000
  128        2.449926  -0.000000

  0.3742002E-15  0.9090909E-01  0.3596334E-15  0.6734007E-02
    1      -13.763420   1.000000
    2      -12.498065   1.000000
    3      -12.305989   1.000000
    4      -11.725902   1.000000
    5      -11.496878   1.000000
    6      -11.159821   1.000000
    7      -11.105288   1.000000
    8      -11.023034   1.000000
    9      -10.925448   1.000000
   10      -10.521984   1.000000
   11      -10.494453   1.000000
   12      -10.326355   1.000000
   13      -10.051483   1.000000
   14      -10.049900   1.000000
   15       -9.639306   1.000000
   16       -9.621040   1.000000
   17       -9.082564   1.000000
   18       -9.016643   1.000000
   19       -9.001103   1.000000
   20       -8.472946   1.000000
   21       -8.467487   1.000000
   22       -8.175168   1.000000
   23       -8.164615   1.000000
   24       -7.882532   1.000000
   25       -7.691602   1.000000
   26       -7.656005   1.000000
   27       -7.417664   1.000000
   28       -7.395872   1.000000
   29       -6.983163   1.000000
   30       -6.451892   1.000000
   31       -6.369742   1.000000
   32       -6.334535   1.000000
   33       -6.062619   1.000000
   34       -6.002609   1.000000
   35       -5.861981   1.000000
   36       -5.712176   1.000000
   37       -5.456289   1.000000
   38       -5.402765   1.000000
   39       -5.261732   1.000000
   40       -5.172879   1.000000
   41       -5.151586   1.000000
   42       -5.102265   1.000000
   43       -5.033082   1.000000
   44       -4.853827   1.000000
   45       -4.758807   1.000000
   46       -4.709860   1.000000
   47       -4.630310   1.000000
   48       -4.592808   1.000000
   49       -4.568628   1.000000
   50       -4.511545   1.000000
   51       -4.419613   1.000000
   52       -4.396442   1.000000
   53       -4.288784   1.000000
   54       -4.171295   1.000000
   55       -4.148274   1.000000
   56       -4.009962   1.000000
   57       -3.999035   1.000000
   58       -3.898531   1.000000
   59       -3.879365   1.000000
   60       -3.787407   1.000000
   61       -3.773975   1.000000
   62       -3.653389   1.000000
   63       -3.577217   1.000000
   64       -3.377458   1.000000
   65       -3.360398   1.000000
   66       -3.275032   1.000000
   67       -3.258431   1.000000
   68       -3.189602   1.000000
   69       -3.135566   1.000000
   70       -3.112146   1.000000
   71       -3.047339   1.000000
   72       -3.016922   1.000000
   73       -2.870901   1.000000
   74       -2.868013   1.000000
   75       -2.725274   1.000000
   76       -2.200681   1.000000
   77       -2.063920   1.000000
   78       -1.999114   1.000000
   79       -1.951607   1.000000
   80       -1.782304   1.000000
   81       -1.763305   1.000000
   82       -1.587421   1.000000
   83       -1.478445   1.000000
   84       -1.455672   1.000000
   85       -1.243109   1.000000
   86       -0.957629   1.000000
   87       -0.841269   1.000000
   88       -0.839388   1.000000
   89       -0.763737   1.000000
   90       -0.339316   1.000000
   91       -0.102624   1.000000
   92       -0.017997   1.000082
   93        0.120121   1.021165
   94        0.204174   0.990261
   95        0.229755   0.893817
   96        0.251516   0.761307
   97        0.358900   0.024958
   98        0.534418  -0.001150
   99        0.607854  -0.000023
  100        0.696418  -0.000000
  101        0.825715  -0.000000
  102        0.851967  -0.000000
  103        0.898008  -0.000000
  104        1.109628  -0.000000
  105        1.157851  -0.000000
  106        1.166957  -0.000000
  107        1.204246  -0.000000
  108        1.383331  -0.000000
  109        1.497748  -0.000000
  110        1.548421  -0.000000
  111        1.610355  -0.000000
  112        1.626302  -0.000000
  113        1.652760  -0.000000
  114        1.723830  -0.000000
  115        1.849958  -0.000000
  116        1.857778  -0.000000
  117        1.902568  -0.000000
  118        1.958274  -0.000000
  119        2.014939  -0.000000
  120        2.130773  -0.000000
  121        2.146548  -0.000000
  122        2.202462  -0.000000
  123        2.230075  -0.000000
  124        2.301997  -0.000000
  125        2.369198  -0.000000
  126        2.475022  -0.000000
  127        2.595601  -0.000000
  128        4.035060   0.000000

  0.1111111E+00  0.9090909E-01  0.4822234E-15  0.6734007E-02
    1      -13.714528   1.000000
    2      -12.487313   1.000000
    3      -12.452120   1.000000
    4      -11.656091   1.000000
    5      -11.468166   1.000000
    6      -11.206763   1.000000
    7      -11.105961   1.000000
    8      -11.051185   1.000000
    9      -10.893589   1.000000
   10      -10.525512   1.000000
   11      -10.429880   1.000000
   12      -10.333486   1.000000
   13      -10.064670   1.000000
   14      -10.046377   1.000000
   15       -9.653198   1.000000
   16       -9.593078   1.000000
   17       -9.065074   1.000000
   18       -9.006783   1.000000
   19       -8.992169   1.000000
   20       -8.515858   1.000000
   21       -8.512884   1.000000
   22       -8.241012   1.000000
   23       -8.193873   1.000000
   24       -7.770635   1.000000
   25       -7.736734   1.000000
   26       -7.689074   1.000000
   27       -7.587547   1.000000
   28       -7.383529   1.000000
   29       -6.904937   1.000000
   30       -6.498620   1.000000
   31       -6.265290   1.000000
   32       -6.212582   1.000000
   33       -6.045091   1.000000
   34       -5.946539   1.000000
   35       -5.885278   1.000000
   36       -5.758314   1.000000
   37       -5.515683   1.000000
   38       -5.358479   1.000000
   39       -5.236091   1.000000
   40       -5.204627   1.000000
   41       -5.078934   1.000000
   42       -5.078187   1.000000
   43       -4.994216   1.000000
   44       -4.878249   1.000000
   45       -4.809954   1.000000
   46       -4.793253   1.000000
   47       -4.639094   1.000000
   48       -4.519973   1.000000
   49       -4.513062   1.000000
   50       -4.458826   1.000000
   51       -4.411794   1.000000
   52       -4.302210   1.000000
   53       -4.264153   1.000000
   54       -4.214211   1.000000
   55       -4.109938   1.000000
   56       -4.060857   1.000000
   57       -4.032883   1.000000
   58       -3.936536   1.000000
   59       -3.868979   1.000000
   60       -3.812513   1.000000
   61       -3.751181   1.000000
   62       -3.611814   1.000000
   63       -3.565274   1.000000
   64       -3.419238   1.000000
   65       -3.362974   1.000000
   66       -3.318015   1.000000
   67       -3.313443   1.000000
   68       -3.185930   1.000000
   69       -3.110301   1.000000
   70       -3.060104   1.000000
   71       -3.029407   1.000000
   72       -2.984825   1.000000
   73       -2.921887   1.000000
   74       -2.848335   1.000000
   75       -2.745066   1.000000
   76       -2.220987   1.000000
   77       -2.074602   1.000000
   78       -2.040924   1.000000
   79       -1.980502   1.000000
   80       -1.826761   1.000000
   81       -1.801402   1.000000
   82       -1.508609   1.000000
   83       -1.488307   1.000000
   84       -1.410946   1.000000
   85       -1.255417   1.000000
   86       -0.949536   1.000000
   87       -0.796585   1.000000
   88       -0.793910   1.000000
   89       -0.647418   1.000000
   90       -0.429187   1.000000
   91       -0.101248   1.000000
   92       -0.052242   1.000011
   93        0.057251   1.003039
   94        0.162070   1.035457
   95        0.181863   1.027437
   96        0.372932  -0.009034
   97        0.387011  -0.027753
   98        0.471196  -0.011911
   99        0.574164  -0.000162
  100        0.671262  -0.000000
  101        0.800744  -0.000000
  102        0.905743  -0.000000
  103        0.968082  -0.000000
  104        1.033835  -0.000000
  105        1.127306  -0.000000
  106        1.180551  -0.000000
  107        1.348698  -0.000000
  108        1.460997  -0.000000
  109        1.483422  -0.000000
  110        1.528401  -0.000000
  111        1.636690  -0.000000
  112        1.648298  -0.000000
  113        1.700910  -0.000000
  114        1.773512  -0.000000
  115        1.833308  -0.000000
  116        1.847390  -0.000000
  117        1.866844  -0.000000
  118        1.908880  -0.000000
  119        2.042714  -0.000000
  120        2.086595  -0.000000
  121        2.155610  -0.000000
  122        2.186725  -0.000000