   50   50   85    1
  0.2363123E+02  0.8645320E-09  0.6085000E-09  0.2593596E-08  0.5000000E-15
   1.0000000000000000E-004
  CAR 
 Name                                    
    190    149    128

  0.3742002E-15  0.3742002E-15  0.3742002E-15  0.3367003E-02
    1      -14.119930   1.000000
    2      -12.774078   1.000000
    3      -12.627382   1.000000
    4      -12.107034   1.000000
    5      -11.710321   1.000000
    6      -11.314615   1.000000
    7      -11.303692   1.000000
    8      -11.271789   1.000000
    9      -11.170936   1.000000
   10      -10.861501   1.000000
   11      -10.838794   1.000000
   12      -10.454638   1.000000
   13      -10.351558   1.000000
   14      -10.290617   1.000000
   15       -9.924173   1.000000
   16       -9.885374   1.000000
   17       -9.108695   1.000000
   18       -9.103179   1.000000
   19       -9.054661   1.000000
   20       -8.792563   1.000000
   21       -8.665925   1.000000
   22       -8.637945   1.000000
   23       -8.361372   1.000000
   24       -8.273753   1.000000
   25       -8.145501   1.000000
   26       -8.137649   1.000000
   27       -7.489690   1.000000
   28       -7.392890   1.000000
   29       -6.919268   1.000000
   30       -6.714600   1.000000
   31       -6.673117   1.000000
   32       -6.352795   1.000000
   33       -6.219356   1.000000
   34       -6.133960   1.000000
   35       -5.881334   1.000000
   36       -5.783720   1.000000
   37       -5.691102   1.000000
   38       -5.672564   1.000000
   39       -5.482587   1.000000
   40       -5.357951   1.000000
   41       -5.324366   1.000000
   42       -5.288896   1.000000
   43       -5.244271   1.000000
   44       -5.056517   1.000000
   45       -5.014409   1.000000
   46       -4.946045   1.000000
   47       -4.931923   1.000000
   48       -4.800416   1.000000
   49       -4.774740   1.000000
   50       -4.711093   1.000000
   51       -4.676903   1.000000
   52       -4.597447   1.000000
   53       -4.537759   1.000000
   54       -4.530272   1.000000
   55       -4.335287   1.000000
   56       -4.238751   1.000000
   57       -4.194846   1.000000
   58       -4.187461   1.000000
   59       -4.084265   1.000000
   60       -3.957879   1.000000
   61       -3.806567   1.000000
   62       -3.706634   1.000000
   63       -3.627136   1.000000
   64       -3.591904   1.000000
   65       -3.563836   1.000000
   66       -3.547797   1.000000
   67       -3.457833   1.000000
   68       -3.418223   1.000000
   69       -3.362367   1.000000
   70       -3.297384   1.000000
   71       -3.277266   1.000000
   72       -2.983751   1.000000
   73       -2.895790   1.000000
   74       -2.703358   1.000000
   75       -2.646427   1.000000
   76       -2.506593   1.000000
   77       -2.458277   1.000000
   78       -2.359182   1.000000
   79       -2.265961   1.000000
   80       -2.247723   1.000000
   81       -2.113902   1.000000
   82       -1.920177   1.000000
   83       -1.707635   1.000000
   84       -1.438999   1.000000
   85       -1.384332   1.000000
   86       -1.271890   1.000000
   87       -1.200850   1.000000
   88       -1.111589   1.000000
   89       -1.088025   1.000000
   90       -0.527433   1.000000
   91       -0.509414   1.000000
   92       -0.350331   1.000866
   93       -0.206265   1.033641
   94       -0.115553   0.678217
   95       -0.058849   0.222306
   96        0.053214  -0.028899
   97        0.085233  -0.014750
   98        0.307538  -0.000000
   99        0.422225  -0.000000
  100        0.459855  -0.000000
  101        0.537065  -0.000000
  102        0.591628  -0.000000
  103        0.630477  -0.000000
  104        0.653976  -0.000000
  105        0.753107  -0.000000
  106        1.078221  -0.000000
  107        1.108891  -0.000000
  108        1.148962  -0.000000
  109        1.176180  -0.000000
  110        1.261330  -0.000000
  111        1.277547  -0.000000
  112        1.315876  -0.000000
  113        1.349221  -0.000000
  114        1.417764  -0.000000
  115        1.491054  -0.000000
  116        1.572658  -0.000000
  117        1.583096  -0.000000
  118        1.718957  -0.000000
  119        1.742521  -0.000000
  120        1.780731  -0.000000
  121        1.842162  -0.000000
  122        1.869479  -0.000000
  123        1.910627  -0.000000
  124        1.967966  -0.000000
  125        2.048865  -0.000000
  126        2.187443  -0.000000
  127        2.236262  -0.000000
  128        2.339147  -0.000000

  0.1111111E+00  0.3729374E-15  0.3860503E-15  0.6734007E-02
    1      -14.092982   1.000000
    2      -12.769343   1.000000
    3      -12.722987   1.000000
    4      -12.051118   1.000000
    5      -11.695864   1.000000
    6      -11.316293   1.000000
    7      -11.295597   1.000000
    8      -11.264513   1.000000
    9      -11.195283   1.000000
   10      -10.858746   1.000000
   11      -10.834129   1.000000
   12      -10.470977   1.000000
   13      -10.350418   1.000000
   14      -10.284468   1.000000
   15       -9.912549   1.000000
   16       -9.875472   1.000000
   17       -9.116916   1.000000
   18       -9.084759   1.000000
   19       -9.050005   1.000000
   20       -8.804848   1.000000
   21       -8.676987   1.000000
   22       -8.633339   1.000000
   23       -8.417510   1.000000
   24       -8.278419   1.000000
   25       -8.171617   1.000000
   26       -8.141830   1.000000
   27       -7.578463   1.000000
   28       -7.394381   1.000000
   29       -6.866411   1.000000
   30       -6.686512   1.000000
   31       -6.650487   1.000000
   32       -6.329623   1.000000
   33       -6.192677   1.000000
   34       -6.116620   1.000000
   35       -5.863542   1.000000
   36       -5.783002   1.000000
   37       -5.693526   1.000000
   38       -5.601151   1.000000
   39       -5.582417   1.000000
   40       -5.401052   1.000000
   41       -5.310480   1.000000
   42       -5.234071   1.000000
   43       -5.205093   1.000000
   44       -5.038049   1.000000
   45       -4.983688   1.000000
   46       -4.929307   1.000000
   47       -4.914481   1.000000
   48       -4.831298   1.000000
   49       -4.777286   1.000000
   50       -4.692016   1.000000
   51       -4.648204   1.000000
   52       -4.573068   1.000000
   53       -4.535571   1.000000
   54       -4.501520   1.000000
   55       -4.338841   1.000000
   56       -4.256232   1.000000
   57       -4.213335   1.000000
   58       -4.169559   1.000000
   59       -4.090941   1.000000
   60       -3.956281   1.000000
   61       -3.837439   1.000000
   62       -3.692996   1.000000
   63       -3.623003   1.000000
   64       -3.590562   1.000000
   65       -3.558079   1.000000
   66       -3.538437   1.000000
   67       -3.457311   1.000000
   68       -3.420469   1.000000
   69       -3.352179   1.000000
   70       -3.346927   1.000000
   71       -3.271031   1.000000
   72       -3.021995   1.000000
   73       -2.953291   1.000000
   74       -2.690555   1.000000
   75       -2.638617   1.000000
   76       -2.554700   1.000000
   77       -2.484752   1.000000
   78       -2.396641   1.000000
   79       -2.287295   1.000000
   80       -2.250277   1.000000
   81       -2.116192   1.000000
   82       -1.818662   1.000000
   83       -1.749151   1.000000
   84       -1.464264   1.000000
   85       -1.412868   1.000000
   86       -1.236969   1.000000
   87       -1.173439   1.000000
   88       -1.121563   1.000000
   89       -0.976740   1.000000
   90       -0.596167   1.000000
   91       -0.551982   1.000000
   92       -0.402487   1.000057
   93       -0.185345   1.013748
   94       -0.063375   0.254220
   95       -0.001208  -0.015855
   96        0.049622  -0.030399
   97        0.090236  -0.012877
   98        0.289029  -0.000000
   99        0.400145  -0.000000
  100        0.448421  -0.000000
  101        0.544160  -0.000000
  102        0.591715  -0.000000
  103        0.670703  -0.000000
  104        0.687217  -0.000000
  105        0.775717  -0.000000
  106        1.084805  -0.000000
  107        1.108489  -0.000000
  108        1.130871  -0.000000
  109        1.189883  -0.000000
  110        1.264126  -0.000000
  111        1.276017  -0.000000
  112        1.327168  -0.000000
  113        1.359577  -0.000000
  114        1.466822  -0.000000
  115        1.492427  -0.000000
  116        1.556507  -0.000000
  117        1.572541  -0.000000
  118        1.719072  -0.000000
  119        1.743184  -0.000000
  120        1.781921  -0.000000
  121        1.841193  -0.000000
  122        1.862306  -0.000000
  123        1.915675  -0.000000
  124        1.945479  -0.000000
  125        2.011633  -0.000000
  126        2.151896  -0.000000
  127        2.244479  -0.000000
  128        2.285419  -0.000000

  0.2222222E+00  0.3922785E-15  0.3630220E-15  0.6734007E-02
    1      -14.012916   1.000000
    2      -12.983397   1.000000
    3      -12.672778   1.000000
    4      -12.007953   1.000000
    5      -11.656456   1.000000
    6      -11.341808   1.000000
    7      -11.279750   1.000000
    8      -11.258578   1.000000
    9      -11.182343   1.000000
   10      -10.848771   1.000000
   11      -10.820062   1.000000
   12      -10.540225   1.000000
   13      -10.347841   1.000000
   14      -10.274485   1.000000
   15       -9.872530   1.000000
   16       -9.841507   1.000000
   17       -9.152457   1.000000
   18       -9.071204   1.000000
   19       -8.972722   1.000000
   20       -8.850030   1.000000
   21       -8.728842   1.000000
   22       -8.628889   1.000000
   23       -8.531230   1.000000
   24       -8.334434   1.000000
   25       -8.248629   1.000000
   26       -8.062159   1.000000
   27       -7.790970   1.000000
   28       -7.355918   1.000000
   29       -6.784641   1.000000
   30       -6.635089   1.000000
   31       -6.605755   1.000000
   32       -6.367483   1.000000
   33       -6.105313   1.000000
   34       -6.045970   1.000000
   35       -5.926772   1.000000
   36       -5.773090   1.000000
   37       -5.712669   1.000000
   38       -5.519193   1.000000
   39       -5.450927   1.000000
   40       -5.406017   1.000000
   41       -5.277979   1.000000
   42       -5.184012   1.000000
   43       -5.124952   1.000000
   44       -5.117072   1.000000
   45       -5.008535   1.000000
   46       -4.908727   1.000000
   47       -4.840579   1.000000
   48       -4.798633   1.000000
   49       -4.748274   1.000000
   50       -4.647520   1.000000
   51       -4.579286   1.000000
   52       -4.553271   1.000000
   53       -4.509354   1.000000
   54       -4.440026   1.000000
   55       -4.350336   1.000000
   56       -4.284526   1.000000
   57       -4.244394   1.000000
   58       -4.140166   1.000000
   59       -4.091391   1.000000
   60       -3.965608   1.000000
   61       -3.871513   1.000000
   62       -3.703040   1.000000
   63       -3.652814   1.000000
   64       -3.600209   1.000000
   65       -3.588647   1.000000
   66       -3.520154   1.000000
   67       -3.492396   1.000000
   68       -3.418440   1.000000
   69       -3.352250   1.000000
   70       -3.324316   1.000000
   71       -3.248509   1.000000
   72       -3.092211   1.000000
   73       -3.051359   1.000000
   74       -2.737398   1.000000
   75       -2.661851   1.000000
   76       -2.605705   1.000000
   77       -2.538736   1.000000
   78       -2.490246   1.000000
   79       -2.369320   1.000000
   80       -2.287950   1.000000
   81       -2.046024   1.000000
   82       -1.873908   1.000000
   83       -1.590793   1.000000
   84       -1.533361   1.000000
   85       -1.480105   1.000000
   86       -1.159992   1.000000
   87       -1.117623   1.000000
   88       -1.063354   1.000000
   89       -0.750373   1.000000
   90       -0.718583   1.000000
   91       -0.644455   1.000000
   92       -0.529880   1.000000
   93       -0.114478   0.669776
   94       -0.050579   0.168485
   95       -0.007558  -0.004628
   96        0.077094  -0.018097
   97        0.247517  -0.000008
   98        0.267519  -0.000002
   99        0.380811  -0.000000
  100        0.408171  -0.000000
  101        0.508368  -0.000000
  102        0.639429  -0.000000
  103        0.733793  -0.000000
  104        0.751704  -0.000000
  105        0.826981  -0.000000
  106        1.045971  -0.000000
  107        1.139691  -0.000000
  108        1.155834  -0.000000
  109        1.197746  -0.000000
  110        1.256426  -0.000000
  111        1.309842  -0.000000
  112        1.323605  -0.000000
  113        1.407849  -0.000000
  114        1.482573  -0.000000
  115        1.527208  -0.000000
  116        1.540649  -0.000000
  117        1.597295  -0.000000
  118        1.716332  -0.000000
  119        1.739849  -0.000000
  120        1.771427  -0.000000
  121        1.790675  -0.000000
  122        1.838734  -0.000000
  123        1.875928  -0.000000
  124        1.971552  -0.000000
  125        2.002283  -0.000000
  126        2.024846  -0.000000
  127        2.161707  -0.000000
  128        2.248043  -0.000000

  0.3333333E+00  0.3713828E-15  0.3468587E-15  0.6734007E-02
    1      -13.882176   1.000000
    2      -13.240993   1.000000
    3      -12.560616   1.000000
    4      -12.075773   1.000000
    5      -11.604182   1.000000
    6      -11.369378   1.000000
    7      -11.266038   1.000000
    8      -11.250742   1.000000
    9      -11.098276   1.000000
   10      -10.833256   1.000000
   11      -10.800132   1.000000
   12      -10.664684   1.000000
   13      -10.349247   1.000000
   14      -10.274675   1.000000
   15       -9.797778   1.000000
   16       -9.781435   1.000000
   17       -9.234385   1.000000
   18       -9.063448   1.000000
   19       -8.905283   1.000000
   20       -8.849969   1.000000
   21       -8.802345   1.000000
   22       -8.636590   1.000000
   23       -8.601498   1.000000
   24       -8.419250   1.000000
   25       -8.338952   1.000000
   26       -8.059344   1.000000
   27       -7.870046   1.000000
   28       -7.258506   1.000000
   29       -6.820145   1.000000
   30       -6.594966   1.000000
   31       -6.570375   1.000000
   32       -6.462442   1.000000
   33       -6.197400   1.000000
   34       -5.965409   1.000000
   35       -5.866276   1.000000
   36       -5.645390   1.000000
   37       -5.596860   1.000000
   38       -5.429731   1.000000
   39       -5.389213   1.000000
   40       -5.328624   1.000000
   41       -5.306997   1.000000
   42       -5.197497   1.000000
   43       -5.148496   1.000000
   44       -5.041937   1.000000
   45       -4.974095   1.000000
   46       -4.892983   1.000000
   47       -4.830055   1.000000
   48       -4.769100   1.000000
   49       -4.668222   1.000000
   50       -4.642672   1.000000
   51       -4.549106   1.000000
   52       -4.492546   1.000000
   53       -4.445538   1.000000
   54       -4.388791   1.000000
   55       -4.361926   1.000000
   56       -4.309475   1.000000
   57       -4.217843   1.000000
   58       -4.111971   1.000000
   59       -4.093053   1.000000
   60       -3.993668   1.000000
   61       -3.862616   1.000000
   62       -3.837915   1.000000
   63       -3.692026   1.000000
   64       -3.657883   1.000000
   65       -3.586431   1.000000
   66       -3.558097   1.000000
   67       -3.496618   1.000000
   68       -3.394088   1.000000
   69       -3.350326   1.000000
   70       -3.308777   1.000000
   71       -3.209281   1.000000
   72       -3.100276   1.000000
   73       -3.042466   1.000000
   74       -2.919308   1.000000
   75       -2.736211   1.000000
   76       -2.659610   1.000000
   77       -2.614658   1.000000
   78       -2.527467   1.000000
   79       -2.428845   1.000000
   80       -2.328782   1.000000
   81       -2.065544   1.000000
   82       -1.903318   1.000000
   83       -1.668622   1.000000
   84       -1.557349   1.000000
   85       -1.319064   1.000000
   86       -1.126690   1.000000
   87       -0.990186   1.000000
   88       -0.956433   1.000000
   89       -0.871425   1.000000
   90       -0.733946   1.000000
   91       -0.662678   1.000000
   92       -0.413923   1.000029
   93       -0.219911   1.035279
   94       -0.072197   0.320700
   95        0.011394  -0.029817
   96        0.176645  -0.000440
   97        0.221230  -0.000039
   98        0.257203  -0.000004
   99        0.331132  -0.000000
  100        0.479727  -0.000000
  101        0.666967  -0.000000
  102        0.728811  -0.000000
  103        0.758359  -0.000000
  104        0.777321  -0.000000
  105        0.878127  -0.000000
  106        0.912570  -0.000000
  107        1.127598  -0.000000
  108        1.231004  -0.000000
  109        1.264558  -0.000000
  110        1.295179  -0.000000
  111        1.314663  -0.000000
  112        1.372045  -0.000000
  113        1.407982  -0.000000
  114        1.453079  -0.000000
  115        1.546411  -0.000000
  116        1.568468  -0.000000
  117        1.660349  -0.000000
  118        1.666562  -0.000000
  119        1.713017  -0.000000
  120        1.726884  -0.000000
  121        1.764851  -0.000000
  122        1.813285  -0.000000
  123        1.866821  -0.000000
  124        1.882355  -0.000000
  125        1.906699  -0.000000
  126        2.009826  -0.000000
  127        2.045998  -0.000000
  128        2.144976  -0.000000

  0.4444444E+00  0.3870091E-15  0.3932070E-15  0.6734007E-02
    1      -13.705443   1.000000
    2      -13.486655   1.000000
    3      -12.423358   1.000000
    4      -12.212994   1.000000
    5      -11.562051   1.000000
    6      -11.380667   1.000000
    7      -11.257771   1.000000
    8      -11.244163   1.000000
    9      -10.983428   1.000000
   10      -10.833879   1.000000
   11      -10.797837   1.000000
   12      -10.780121   1.000000
   13      -10.355259   1.000000
   14      -10.282138   1.000000
   15       -9.723862   1.000000
   16       -9.711963   1.000000
   17       -9.335931   1.000000
   18       -9.055853   1.000000
   19       -8.954276   1.000000
   20       -8.910719   1.000000
   21       -8.674705   1.000000
   22       -8.645532   1.000000
   23       -8.560275   1.000000
   24       -8.475854   1.000000
   25       -8.400114   1.000000
   26       -8.319530   1.000000
   27       -7.654717   1.000000
   28       -7.236005   1.000000
   29       -6.892098   1.000000
   30       -6.592365   1.000000
   31       -6.557769   1.000000
   32       -6.518963   1.000000
   33       -6.344428   1.000000
   34       -5.798820   1.000000
   35       -5.702316   1.000000
   36       -5.615806   1.000000
   37       -5.503416   1.000000
   38       -5.477436   1.000000
   39       -5.415824   1.000000
   40       -5.347454   1.000000
   41       -5.262467   1.000000
   42       -5.170884   1.000000
   43       -5.078538   1.000000
   44       -4.998370   1.000000
   45       -4.936061   1.000000
   46       -4.864684   1.000000
   47       -4.815196   1.000000
   48       -4.797530   1.000000
   49       -4.679421   1.000000
   50       -4.584882   1.000000
   51       -4.525619   1.000000
   52       -4.505811   1.000000
   53       -4.440922   1.000000
   54       -4.359787   1.000000
   55       -4.282488   1.000000
   56       -4.261205   1.000000
   57       -4.220790   1.000000
   58       -4.115689   1.000000
   59       -4.051295   1.000000
   60       -4.029228   1.000000
   61       -3.964571   1.000000
   62       -3.839261   1.000000
   63       -3.754752   1.000000
   64       -3.688954   1.000000
   65       -3.633409   1.000000
   66       -3.534500   1.000000
   67       -3.485101   1.000000
   68       -3.394934   1.000000
   69       -3.357358   1.000000
   70       -3.321424   1.000000
   71       -3.184713   1.000000
   72       -3.077422   1.000000
   73       -3.032106   1.000000
   74       -2.908204   1.000000
   75       -2.834827   1.000000
   76       -2.763860   1.000000
   77       -2.723688   1.000000
   78       -2.545002   1.000000
   79       -2.388403   1.000000
   80       -2.322533   1.000000
   81       -2.205511   1.000000
   82       -1.866410   1.000000
   83       -1.750282   1.000000
   84       -1.537039   1.000000
   85       -1.181724   1.000000
   86       -1.158367   1.000000
   87       -1.014947   1.000000
   88       -0.949127   1.000000
   89       -0.769882   1.000000
   90       -0.711519   1.000000
   91       -0.653833   1.000000
   92       -0.332982   1.001863
   93       -0.292648   1.008335
   94       -0.095145   0.510163
   95       -0.023079   0.037143
   96        0.153605  -0.001291
   97        0.219121  -0.000044
   98        0.264003  -0.000003
   99        0.472322  -0.000000
  100        0.495370  -0.000000
  101        0.653584  -0.000000
  102        0.679347  -0.000000
  103        0.751350  -0.000000
  104        0.779970  -0.000000
  105        1.036373  -0.000000
  106        1.078371  -0.000000
  107        1.114857  -0.000000
  108        1.194819  -0.000000
  109        1.301950  -0.000000
  110        1.325684  -0.000000
  111        1.381460  -0.000000
  112        1.398477  -0.000000
  113        1.408632  -0.000000
  114        1.455619  -0.000000
  115        1.474872  -0.000000
  116        1.556239  -0.000000
  117        1.592271  -0.000000
  118        1.618943  -0.000000
  119        1.646524  -0.000000
  120        1.684749  -0.000000
  121        1.703220  -0.000000
  122        1.765325  -0.000000
  123        1.851710  -0.000000
  124        1.941011  -0.000000
  125        1.964864  -0.000000
  126        2.024612  -0.000000
  127        2.042720  -0.000000
  128        2.140582  -0.000000

  0.3742002E-15  0.9090909E-01  0.3596334E-15  0.6734007E-02
    1      -14.086851   1.000000
    2      -12.745765   1.000000
    3      -12.631436   1.000000
    4      -12.075770   1.000000
    5      -11.691679   1.000000
    6      -11.494209   1.000000
    7      -11.441241   1.000000
    8      -11.263979   1.000000
    9      -11.166922   1.000000
   10      -10.861946   1.000000
   11      -10.815727   1.000000
   12      -10.429300   1.000000
   13      -10.311190   1.000000
   14      -10.239940   1.000000
   15       -9.917517   1.000000
   16       -9.873473   1.000000
   17       -9.219283   1.000000
   18       -9.116903   1.000000
   19       -9.062254   1.000000
   20       -8.758649   1.000000
   21       -8.720553   1.000000
   22       -8.615951   1.000000
   23       -8.196344   1.000000
   24       -8.152664   1.000000
   25       -8.009094   1.000000
   26       -7.999931   1.000000
   27       -7.539784   1.000000
   28       -7.360710   1.000000
   29       -6.884550   1.000000
   30       -6.751484   1.000000
   31       -6.665311   1.000000
   32       -6.337146   1.000000
   33       -6.249828   1.000000
   34       -6.114848   1.000000
   35       -5.887685   1.000000
   36       -5.801620   1.000000
   37       -5.669917   1.000000
   38       -5.625719   1.000000
   39       -5.543799   1.000000
   40       -5.421338   1.000000
   41       -5.340350   1.000000
   42       -5.291606   1.000000
   43       -5.239394   1.000000
   44       -5.190799   1.000000
   45       -5.061512   1.000000
   46       -4.961660   1.000000
   47       -4.940247   1.000000
   48       -4.884663   1.000000
   49       -4.783134   1.000000
   50       -4.721884   1.000000
   51       -4.696509   1.000000
   52       -4.592843   1.000000
   53       -4.546514   1.000000
   54       -4.503390   1.000000
   55       -4.409195   1.000000
   56       -4.262635   1.000000
   57       -4.186662   1.000000
   58       -4.118940   1.000000
   59       -4.107028   1.000000
   60       -3.995224   1.000000
   61       -3.752955   1.000000
   62       -3.707188   1.000000
   63       -3.648319   1.000000
   64       -3.613583   1.000000
   65       -3.572032   1.000000
   66       -3.516120   1.000000
   67       -3.464383   1.000000
   68       -3.410073   1.000000
   69       -3.382920   1.000000
   70       -3.266202   1.000000
   71       -3.235626   1.000000
   72       -3.072136   1.000000
   73       -2.986636   1.000000
   74       -2.665337   1.000000
   75       -2.563013   1.000000
   76       -2.534939   1.000000
   77       -2.464057   1.000000
   78       -2.347439   1.000000
   79       -2.263756   1.000000
   80       -2.214293   1.000000
   81       -2.123616   1.000000
   82       -1.940767   1.000000
   83       -1.637319   1.000000
   84       -1.465507   1.000000
   85       -1.413266   1.000000
   86       -1.315813   1.000000
   87       -1.207399   1.000000
   88       -1.166883   1.000000
   89       -1.118209   1.000000
   90       -0.662319   1.000000
   91       -0.517304   1.000000
   92       -0.433921   1.000008
   93       -0.235095   1.031344
   94       -0.162550   0.954911
   95       -0.135247   0.818670
   96        0.019706  -0.034109
   97        0.087387  -0.013925
   98        0.262088  -0.000003
   99        0.301192  -0.000000
  100        0.418453  -0.000000
  101        0.561619  -0.000000
  102        0.691570  -0.000000
  103        0.721391  -0.000000
  104        0.816052  -0.000000
  105        0.837009  -0.000000
  106        1.012099  -0.000000
  107        1.050276  -0.000000
  108        1.165405  -0.000000
  109        1.179131  -0.000000
  110        1.261002  -0.000000
  111        1.291740  -0.000000
  112        1.328835  -0.000000
  113        1.370178  -0.000000
  114        1.437866  -0.000000
  115        1.511461  -0.000000
  116        1.564128  -0.000000
  117        1.587204  -0.000000
  118        1.692646  -0.000000
  119        1.713510  -0.000000
  120        1.792503  -0.000000
  121        1.845506  -0.000000
  122        1.895058  -0.000000
  123        1.919366  -0.000000
  124        1.961634  -0.000000
  125        2.043968  -0.000000
  126        2.158712  -0.000000
  127        2.247884  -0.000000
  128        2.322307  -0.000000

  0.1111111E+00  0.9090909E-01  0.4822234E-15  0.6734007E-02
    1      -14.038147   1.000000
    2      -12.820120   1.000000
    3      -12.693042   1.000000
    4      -12.006377   1.000000
    5      -11.666740   1.000000
    6      -11.538718   1.000000
    7      -11.386563   1.000000
    8      -11.264863   1.000000
    9      -11.193103   1.000000
   10      -10.862747   1.000000
   11      -10.756868   1.000000
   12      -10.469432   1.000000
   13      -10.341653   1.000000
   14      -10.262750   1.000000
   15       -9.882851   1.000000
   16       -9.829436   1.000000
   17       -9.248046   1.000000
   18       -9.103187   1.000000
   19       -9.015039   1.000000
   20       -8.818306   1.000000
   21       -8.753559   1.000000
   22       -8.609889   1.000000
   23       -8.281302   1.000000
   24       -8.130791   1.000000
   25       -8.029552   1.000000
   26       -8.016543   1.000000
   27       -7.676950   1.000000
   28       -7.353123   1.000000
   29       -6.812831   1.000000
   30       -6.764273   1.000000
   31       -6.573162   1.000000
   32       -6.309016   1.000000
   33       -6.241831   1.000000
   34       -6.082614   1.000000
   35       -5.903072   1.000000
   36       -5.781719   1.000000
   37       -5.665301   1.000000
   38       -5.565909   1.000000
   39       -5.539876   1.000000
   40       -5.466939   1.000000
   41       -5.314571   1.000000
   42       -5.285426   1.000000
   43       -5.209748   1.000000
   44       -5.158377   1.000000
   45       -5.020559   1.000000
   46       -4.946079   1.000000
   47       -4.888791   1.000000
   48       -4.839977   1.000000
   49       -4.777891   1.000000
   50       -4.675283   1.000000
   51       -4.660022   1.000000
   52       -4.611749   1.000000
   53       -4.534003   1.000000
   54       -4.476551   1.000000
   55       -4.412896   1.000000
   56       -4.277617   1.000000
   57       -4.182076   1.000000
   58       -4.127749   1.000000
   59       -4.088208   1.000000
   60       -3.999183   1.000000
   61       -3.805160   1.000000
   62       -3.718239   1.000000
   63       -3.693983   1.000000
   64       -3.628280   1.000000
   65       -3.567666   1.000000
   66       -3.504128   1.000000
   67       -3.426266   1.000000
   68       -3.385794   1.000000
   69       -3.366800   1.000000
   70       -3.314420   1.000000
   71       -3.260695   1.000000
   72       -3.112721   1.000000
   73       -3.031031   1.000000
   74       -2.690968   1.000000
   75       -2.615472   1.000000
   76       -2.589635   1.000000
   77       -2.496516   1.000000
   78       -2.422911   1.000000
   79       -2.287189   1.000000
   80       -2.211772   1.000000
   81       -2.096652   1.000000
   82       -1.920239   1.000000
   83       -1.610893   1.000000
   84       -1.549650   1.000000
   85       -1.491187   1.000000
   86       -1.265680   1.000000
   87       -1.161551   1.000000
   88       -1.054936   1.000000
   89       -0.956309   1.000000
   90       -0.745580   1.000000
   91       -0.573960   1.000000
   92       -0.454204   1.000002
   93       -0.217733   1.035432
   94       -0.114131   0.667041
   95       -0.035873   0.088827
   96        0.051376  -0.029678
   97        0.068837  -0.021785
   98        0.187808  -0.000250
   99        0.258289  -0.000004
  100        0.471944  -0.000000
  101        0.616625  -0.000000
  102        0.675101  -0.000000
  103        0.746540  -0.000000
  104        0.810289  -0.000000
  105        0.856507  -0.000000
  106        0.992709  -0.000000
  107        1.118334  -0.000000
  108        1.135398  -0.000000
  109        1.177982  -0.000000
  110        1.223153  -0.000000
  111        1.304053  -0.000000
  112        1.352021  -0.000000
  113        1.399670  -0.000000
  114        1.472370  -0.000000
  115        1.512633  -0.000000
  116        1.536824  -0.000000
  117        1.594674  -0.000000
  118        1.677882  -0.000000
  119        1.745823  -0.000000
  120        1.773716  -0.000000
  121        1.816760  -0.000000
  122        1.844884  -0.000000