   73   73   40    1
  0.2139262E+02  0.1053953E-08  0.6141200E-09  0.2412750E-08  0.5000000E-15
   1.0000000000000000E-004
  CAR 
 Name                                    
    268     23    176

  0.3742002E-15  0.3742002E-15  0.1262379E-14  0.2222222E-01
    1      -13.810007   1.000000
    2      -12.763219   1.000000
    3      -12.559228   1.000000
    4      -12.381245   1.000000
    5      -11.792990   1.000000
    6      -11.656530   1.000000
    7      -11.552693   1.000000
    8      -11.269731   1.000000
    9      -11.238339   1.000000
   10      -11.116225   1.000000
   11      -11.033939   1.000000
   12      -10.843843   1.000000
   13      -10.637889   1.000000
   14      -10.337832   1.000000
   15      -10.279277   1.000000
   16      -10.147359   1.000000
   17      -10.089536   1.000000
   18       -9.971380   1.000000
   19       -9.749552   1.000000
   20       -9.667678   1.000000
   21       -9.440747   1.000000
   22       -9.379325   1.000000
   23       -9.352601   1.000000
   24       -9.146571   1.000000
   25       -8.850187   1.000000
   26       -8.828062   1.000000
   27       -8.600931   1.000000
   28       -8.331918   1.000000
   29       -8.268891   1.000000
   30       -8.081030   1.000000
   31       -7.934948   1.000000
   32       -7.889993   1.000000
   33       -7.527290   1.000000
   34       -7.376643   1.000000
   35       -7.364236   1.000000
   36       -7.222454   1.000000
   37       -7.105041   1.000000
   38       -6.898389   1.000000
   39       -6.808720   1.000000
   40       -6.744505   1.000000
   41       -6.722692   1.000000
   42       -6.618991   1.000000
   43       -6.561337   1.000000
   44       -6.391813   1.000000
   45       -6.177035   1.000000
   46       -6.088991   1.000000
   47       -6.085844   1.000000
   48       -6.017043   1.000000
   49       -6.007164   1.000000
   50       -5.832473   1.000000
   51       -5.742321   1.000000
   52       -5.725278   1.000000
   53       -5.691998   1.000000
   54       -5.506452   1.000000
   55       -5.463169   1.000000
   56       -5.458016   1.000000
   57       -5.322655   1.000000
   58       -5.253423   1.000000
   59       -5.219852   1.000000
   60       -5.149101   1.000000
   61       -5.095813   1.000000
   62       -5.031072   1.000000
   63       -4.857598   1.000000
   64       -4.779044   1.000000
   65       -4.684702   1.000000
   66       -4.637310   1.000000
   67       -4.536259   1.000000
   68       -4.522206   1.000000
   69       -4.510330   1.000000
   70       -4.357664   1.000000
   71       -4.334626   1.000000
   72       -4.310612   1.000000
   73       -4.209665   1.000000
   74       -4.161048   1.000000
   75       -4.072964   1.000000
   76       -4.058275   1.000000
   77       -3.991858   1.000000
   78       -3.893259   1.000000
   79       -3.874722   1.000000
   80       -3.846965   1.000000
   81       -3.752706   1.000000
   82       -3.699116   1.000000
   83       -3.611796   1.000000
   84       -3.588347   1.000000
   85       -3.565802   1.000000
   86       -3.465976   1.000000
   87       -3.428365   1.000000
   88       -3.337260   1.000000
   89       -3.289011   1.000000
   90       -3.248815   1.000000
   91       -3.163331   1.000000
   92       -3.084172   1.000000
   93       -3.036796   1.000000
   94       -2.955752   1.000000
   95       -2.866268   1.000000
   96       -2.798218   1.000000
   97       -2.738863   1.000000
   98       -2.593668   1.000000
   99       -2.501437   1.000000
  100       -2.486339   1.000000
  101       -2.440438   1.000000
  102       -2.405666   1.000000
  103       -2.280610   1.000000
  104       -2.262282   1.000000
  105       -2.244915   1.000000
  106       -2.181226   1.000000
  107       -2.163028   1.000000
  108       -2.122941   1.000000
  109       -2.063189   1.000000
  110       -2.016286   1.000000
  111       -1.879281   1.000000
  112       -1.847652   1.000000
  113       -1.762054   1.000000
  114       -1.689136   1.000000
  115       -1.570640   1.000000
  116       -1.470124   1.000000
  117       -1.433861   1.000000
  118       -1.247095   1.000000
  119       -1.142604   1.000000
  120       -1.114759   1.000000
  121       -1.075718   1.000000
  122       -0.947098   1.000000
  123       -0.723060   1.000000
  124       -0.593349   1.000000
  125       -0.512154   1.000005
  126       -0.447248   1.000038
  127       -0.392786   1.000178
  128       -0.257084   1.003927
  129       -0.135737   1.023226
  130       -0.099248   1.031245
  131       -0.046111   1.034464
  132        0.064763   0.917323
  133        0.085987   0.863391
  134        0.107632   0.797086
  135        0.244196   0.256075
  136        0.281901   0.134524
  137        0.316530   0.053024
  138        0.330891   0.027996
  139        0.420740  -0.035212
  140        0.608197  -0.005264
  141        0.630315  -0.003499
  142        0.652255  -0.002265
  143        0.708299  -0.000655
  144        0.773601  -0.000123
  145        0.822944  -0.000030
  146        0.925344  -0.000001
  147        1.028772  -0.000000
  148        1.068928  -0.000000
  149        1.118728  -0.000000
  150        1.157487  -0.000000
  151        1.181721  -0.000000
  152        1.242356  -0.000000
  153        1.261637  -0.000000
  154        1.290257  -0.000000
  155        1.301159  -0.000000
  156        1.331166  -0.000000
  157        1.427120  -0.000000
  158        1.464619  -0.000000
  159        1.495064  -0.000000
  160        1.531101  -0.000000
  161        1.535531  -0.000000
  162        1.553054  -0.000000
  163        1.579566  -0.000000
  164        1.598040  -0.000000
  165        1.631720  -0.000000
  166        1.642472  -0.000000
  167        1.712714  -0.000000
  168        1.754938  -0.000000
  169        1.805112  -0.000000
  170        1.852316  -0.000000
  171        1.856909  -0.000000
  172        1.973851  -0.000000
  173        2.024884  -0.000000
  174        2.033751  -0.000000
  175        2.154900  -0.000000
  176        2.263674  -0.000000

  0.2000000E+00  0.3742002E-15  0.1262379E-14  0.4444444E-01
    1      -13.782652   1.000000
    2      -12.882685   1.000000
    3      -12.664330   1.000000
    4      -12.076000   1.000000
    5      -11.928838   1.000000
    6      -11.791673   1.000000
    7      -11.297879   1.000000
    8      -11.247416   1.000000
    9      -11.175955   1.000000
   10      -11.063409   1.000000
   11      -10.995779   1.000000
   12      -10.848607   1.000000
   13      -10.615108   1.000000
   14      -10.506973   1.000000
   15      -10.364883   1.000000
   16      -10.161343   1.000000
   17      -10.155697   1.000000
   18      -10.078364   1.000000
   19       -9.800722   1.000000
   20       -9.704600   1.000000
   21       -9.495992   1.000000
   22       -9.404468   1.000000
   23       -9.286225   1.000000
   24       -9.093907   1.000000
   25       -8.889165   1.000000
   26       -8.782192   1.000000
   27       -8.336176   1.000000
   28       -8.272611   1.000000
   29       -8.170304   1.000000
   30       -8.013264   1.000000
   31       -7.981883   1.000000
   32       -7.854854   1.000000
   33       -7.499787   1.000000
   34       -7.423462   1.000000
   35       -7.363023   1.000000
   36       -7.279414   1.000000
   37       -7.144697   1.000000
   38       -6.939880   1.000000
   39       -6.880024   1.000000
   40       -6.778884   1.000000
   41       -6.744379   1.000000
   42       -6.714297   1.000000
   43       -6.574591   1.000000
   44       -6.467335   1.000000
   45       -6.347767   1.000000
   46       -6.158147   1.000000
   47       -6.042032   1.000000
   48       -5.891675   1.000000
   49       -5.883607   1.000000
   50       -5.834492   1.000000
   51       -5.754464   1.000000
   52       -5.717421   1.000000
   53       -5.667347   1.000000
   54       -5.658955   1.000000
   55       -5.419457   1.000000
   56       -5.411064   1.000000
   57       -5.280403   1.000000
   58       -5.251070   1.000000
   59       -5.150089   1.000000
   60       -5.056387   1.000000
   61       -5.024294   1.000000
   62       -4.969265   1.000000
   63       -4.893946   1.000000
   64       -4.768131   1.000000
   65       -4.720608   1.000000
   66       -4.634506   1.000000
   67       -4.553194   1.000000
   68       -4.537376   1.000000
   69       -4.444355   1.000000
   70       -4.363077   1.000000
   71       -4.330820   1.000000
   72       -4.282944   1.000000
   73       -4.191185   1.000000
   74       -4.125990   1.000000
   75       -4.078254   1.000000
   76       -4.044791   1.000000
   77       -3.979105   1.000000
   78       -3.900481   1.000000
   79       -3.897555   1.000000
   80       -3.864634   1.000000
   81       -3.775183   1.000000
   82       -3.761631   1.000000
   83       -3.700152   1.000000
   84       -3.632510   1.000000
   85       -3.588620   1.000000
   86       -3.457337   1.000000
   87       -3.404241   1.000000
   88       -3.394848   1.000000
   89       -3.261557   1.000000
   90       -3.249554   1.000000
   91       -3.181974   1.000000
   92       -3.080242   1.000000
   93       -3.054240   1.000000
   94       -2.932616   1.000000
   95       -2.842033   1.000000
   96       -2.788401   1.000000
   97       -2.731275   1.000000
   98       -2.616862   1.000000
   99       -2.598012   1.000000
  100       -2.523734   1.000000
  101       -2.409105   1.000000
  102       -2.394840   1.000000
  103       -2.352609   1.000000
  104       -2.272813   1.000000
  105       -2.248649   1.000000
  106       -2.166993   1.000000
  107       -2.139782   1.000000
  108       -2.047012   1.000000
  109       -1.972893   1.000000
  110       -1.944480   1.000000
  111       -1.867130   1.000000
  112       -1.811256   1.000000
  113       -1.691033   1.000000
  114       -1.645263   1.000000
  115       -1.544243   1.000000
  116       -1.475112   1.000000
  117       -1.410443   1.000000
  118       -1.220979   1.000000
  119       -1.160533   1.000000
  120       -1.098928   1.000000
  121       -1.091514   1.000000
  122       -1.022766   1.000000
  123       -0.791089   1.000000
  124       -0.642980   1.000000
  125       -0.610833   1.000000
  126       -0.477308   1.000015
  127       -0.446096   1.000040
  128       -0.368956   1.000331
  129       -0.212523   1.008511
  130       -0.158670   1.018062
  131       -0.033684   1.031919
  132        0.043274   0.960392
  133        0.127934   0.725626
  134        0.139972   0.679713
  135        0.194602   0.453403
  136        0.266601   0.179996
  137        0.339282   0.015645
  138        0.385407  -0.026053
  139        0.442425  -0.034781
  140        0.546851  -0.013809
  141        0.651233  -0.002313
  142        0.689834  -0.001006
  143        0.739029  -0.000307
  144        0.778393  -0.000108
  145        0.913785  -0.000002
  146        0.925758  -0.000001
  147        1.016444  -0.000000
  148        1.100092  -0.000000
  149        1.117360  -0.000000
  150        1.163286  -0.000000
  151        1.224694  -0.000000
  152        1.233929  -0.000000
  153        1.283778  -0.000000
  154        1.334122  -0.000000
  155        1.369460  -0.000000
  156        1.419361  -0.000000
  157        1.447494  -0.000000
  158        1.476704  -0.000000
  159        1.509140  -0.000000
  160        1.548017  -0.000000
  161        1.565708  -0.000000
  162        1.581758  -0.000000
  163        1.605982  -0.000000
  164        1.619410  -0.000000
  165        1.652899  -0.000000
  166        1.694937  -0.000000
  167        1.735799  -0.000000
  168        1.747542  -0.000000
  169        1.790123  -0.000000
  170        1.830884  -0.000000
  171        1.851073  -0.000000
  172        1.959346  -0.000000
  173        2.017697  -0.000000
  174        2.052667  -0.000000
  175        2.124437  -0.000000
  176        2.207955  -0.000000

  0.4000000E+00  0.3742002E-15  0.1262379E-14  0.4444444E-01
    1      -13.727533   1.000000
    2      -13.086664   1.000000
    3      -12.570749   1.000000
    4      -12.265012   1.000000
    5      -11.789485   1.000000
    6      -11.516585   1.000000
    7      -11.334057   1.000000
    8      -11.249602   1.000000
    9      -11.037494   1.000000
   10      -10.996859   1.000000
   11      -10.881668   1.000000
   12      -10.854672   1.000000
   13      -10.661341   1.000000
   14      -10.568508   1.000000
   15      -10.486901   1.000000
   16      -10.423576   1.000000
   17      -10.179725   1.000000
   18      -10.053331   1.000000
   19      -10.028558   1.000000
   20       -9.888968   1.000000
   21       -9.420294   1.000000
   22       -9.341721   1.000000
   23       -9.269886   1.000000
   24       -9.046099   1.000000
   25       -8.987226   1.000000
   26       -8.637401   1.000000
   27       -8.186784   1.000000
   28       -8.101518   1.000000
   29       -7.934831   1.000000
   30       -7.908583   1.000000
   31       -7.783705   1.000000
   32       -7.698201   1.000000
   33       -7.634468   1.000000
   34       -7.536473   1.000000
   35       -7.354503   1.000000
   36       -7.347835   1.000000
   37       -7.239742   1.000000
   38       -7.226712   1.000000
   39       -7.034982   1.000000
   40       -6.994151   1.000000
   41       -6.756734   1.000000
   42       -6.744254   1.000000
   43       -6.499759   1.000000
   44       -6.466321   1.000000
   45       -6.437633   1.000000
   46       -6.162767   1.000000
   47       -6.016181   1.000000
   48       -5.987908   1.000000
   49       -5.861395   1.000000
   50       -5.845823   1.000000
   51       -5.758636   1.000000
   52       -5.718951   1.000000
   53       -5.615588   1.000000
   54       -5.487601   1.000000
   55       -5.409819   1.000000
   56       -5.341892   1.000000
   57       -5.313253   1.000000
   58       -5.256765   1.000000
   59       -5.221071   1.000000
   60       -5.092676   1.000000
   61       -4.891662   1.000000
   62       -4.847748   1.000000
   63       -4.840557   1.000000
   64       -4.750773   1.000000
   65       -4.647225   1.000000
   66       -4.574334   1.000000
   67       -4.545316   1.000000
   68       -4.471094   1.000000
   69       -4.408672   1.000000
   70       -4.354968   1.000000
   71       -4.339433   1.000000
   72       -4.254956   1.000000
   73       -4.214108   1.000000
   74       -4.103174   1.000000
   75       -4.064343   1.000000
   76       -4.022716   1.000000
   77       -3.994473   1.000000
   78       -3.979631   1.000000
   79       -3.924655   1.000000
   80       -3.860491   1.000000
   81       -3.839644   1.000000
   82       -3.833158   1.000000
   83       -3.741596   1.000000
   84       -3.696581   1.000000
   85       -3.555065   1.000000
   86       -3.541911   1.000000
   87       -3.439823   1.000000
   88       -3.386539   1.000000
   89       -3.283304   1.000000
   90       -3.243807   1.000000
   91       -3.207318   1.000000
   92       -3.044960   1.000000
   93       -3.015785   1.000000
   94       -2.960106   1.000000
   95       -2.957505   1.000000
   96       -2.823482   1.000000
   97       -2.720189   1.000000
   98       -2.709391   1.000000
   99       -2.648618   1.000000
  100       -2.478061   1.000000
  101       -2.456690   1.000000
  102       -2.371715   1.000000
  103       -2.341763   1.000000
  104       -2.284822   1.000000
  105       -2.146961   1.000000
  106       -2.137635   1.000000
  107       -2.073773   1.000000
  108       -2.063228   1.000000
  109       -1.873141   1.000000
  110       -1.831767   1.000000
  111       -1.787292   1.000000
  112       -1.776584   1.000000
  113       -1.597329   1.000000
  114       -1.592949   1.000000
  115       -1.493876   1.000000
  116       -1.409951   1.000000
  117       -1.377159   1.000000
  118       -1.238057   1.000000
  119       -1.164578   1.000000
  120       -1.159003   1.000000
  121       -1.089567   1.000000
  122       -1.025060   1.000000
  123       -0.892473   1.000000
  124       -0.780924   1.000000
  125       -0.675408   1.000000
  126       -0.632055   1.000000
  127       -0.589773   1.000000
  128       -0.460085   1.000026
  129       -0.369338   1.000328
  130       -0.234624   1.005893
  131        0.000039   1.014338
  132        0.003075   1.011825
  133        0.106690   0.800196
  134        0.145441   0.658138
  135        0.195271   0.450588
  136        0.288807   0.115864
  137        0.328756   0.031402
  138        0.403984  -0.032734
  139        0.473876  -0.029748
  140        0.556072  -0.012147
  141        0.634462  -0.003230
  142        0.706364  -0.000686
  143        0.789597  -0.000079
  144        0.836331  -0.000020
  145        0.959921  -0.000000
  146        0.979051  -0.000000
  147        1.030064  -0.000000
  148        1.122676  -0.000000
  149        1.183198  -0.000000
  150        1.233346  -0.000000
  151        1.266414  -0.000000
  152        1.280050  -0.000000
  153        1.346857  -0.000000
  154        1.385130  -0.000000
  155        1.455586  -0.000000
  156        1.466614  -0.000000
  157        1.479301  -0.000000
  158        1.502131  -0.000000
  159        1.532913  -0.000000
  160        1.575547  -0.000000
  161        1.611086  -0.000000
  162        1.622997  -0.000000
  163        1.639537  -0.000000
  164        1.650252  -0.000000
  165        1.684189  -0.000000
  166        1.741039  -0.000000
  167        1.761777  -0.000000
  168        1.791995  -0.000000
  169        1.823276  -0.000000
  170        1.880407  -0.000000
  171        1.894307  -0.000000
  172        1.917700  -0.000000
  173        1.987141  -0.000000
  174        2.000095  -0.000000
  175        2.084710  -0.000000
  176        2.093907  -0.000000

  0.3742002E-15  0.1111111E+00  0.1262379E-14  0.4444444E-01
    1      -13.764195   1.000000
    2      -12.721775   1.000000
    3      -12.523140   1.000000
    4      -12.349527   1.000000
    5      -11.875301   1.000000
    6      -11.625956   1.000000
    7      -11.521843   1.000000
    8      -11.310623   1.000000
    9      -11.270448   1.000000
   10      -11.157520   1.000000
   11      -11.010188   1.000000
   12      -10.861554   1.000000
   13      -10.669789   1.000000
   14      -10.357053   1.000000
   15      -10.255651   1.000000
   16      -10.148519   1.000000
   17      -10.101570   1.000000
   18       -9.963194   1.000000
   19       -9.743406   1.000000
   20       -9.635176   1.000000
   21       -9.456645   1.000000
   22       -9.382894   1.000000
   23       -9.347306   1.000000
   24       -9.155244   1.000000
   25       -8.867351   1.000000
   26       -8.812396   1.000000
   27       -8.587765   1.000000
   28       -8.346303   1.000000
   29       -8.262597   1.000000
   30       -8.099613   1.000000
   31       -7.929599   1.000000
   32       -7.756872   1.000000
   33       -7.611291   1.000000
   34       -7.473956   1.000000
   35       -7.345242   1.000000
   36       -7.220374   1.000000
   37       -7.187666   1.000000
   38       -6.934458   1.000000
   39       -6.792470   1.000000
   40       -6.773827   1.000000
   41       -6.680883   1.000000
   42       -6.559643   1.000000
   43       -6.529259   1.000000
   44       -6.329232   1.000000
   45       -6.209327   1.000000
   46       -6.116469   1.000000
   47       -6.057666   1.000000
   48       -6.029018   1.000000
   49       -5.963760   1.000000
   50       -5.842746   1.000000
   51       -5.763611   1.000000
   52       -5.732108   1.000000
   53       -5.669510   1.000000
   54       -5.556837   1.000000
   55       -5.433061   1.000000
   56       -5.350855   1.000000
   57       -5.321855   1.000000
   58       -5.248155   1.000000
   59       -5.224523   1.000000
   60       -5.109545   1.000000
   61       -5.032157   1.000000
   62       -4.996759   1.000000
   63       -4.872171   1.000000
   64       -4.759008   1.000000
   65       -4.704505   1.000000
   66       -4.615799   1.000000
   67       -4.566095   1.000000
   68       -4.528266   1.000000
   69       -4.439056   1.000000
   70       -4.393882   1.000000
   71       -4.352792   1.000000
   72       -4.316500   1.000000
   73       -4.250388   1.000000
   74       -4.189551   1.000000
   75       -4.138657   1.000000
   76       -3.997488   1.000000
   77       -3.934381   1.000000
   78       -3.924523   1.000000
   79       -3.872899   1.000000
   80       -3.831544   1.000000
   81       -3.797295   1.000000
   82       -3.711996   1.000000
   83       -3.638429   1.000000
   84       -3.595147   1.000000
   85       -3.531538   1.000000
   86       -3.493207   1.000000
   87       -3.416308   1.000000
   88       -3.342682   1.000000
   89       -3.264242   1.000000
   90       -3.250137   1.000000
   91       -3.170525   1.000000
   92       -3.103042   1.000000
   93       -3.033211   1.000000
   94       -2.989018   1.000000
   95       -2.945692   1.000000
   96       -2.840252   1.000000
   97       -2.758538   1.000000
   98       -2.679974   1.000000
   99       -2.598670   1.000000
  100       -2.492095   1.000000
  101       -2.437544   1.000000
  102       -2.415526   1.000000
  103       -2.315653   1.000000
  104       -2.291401   1.000000
  105       -2.267124   1.000000
  106       -2.212390   1.000000
  107       -2.178933   1.000000
  108       -2.085259   1.000000
  109       -2.063845   1.000000
  110       -1.980788   1.000000
  111       -1.893924   1.000000
  112       -1.792150   1.000000
  113       -1.775567   1.000000
  114       -1.635847   1.000000
  115       -1.498859   1.000000
  116       -1.439765   1.000000
  117       -1.381287   1.000000
  118       -1.235258   1.000000
  119       -1.166818   1.000000
  120       -1.124865   1.000000
  121       -1.020520   1.000000
  122       -0.835528   1.000000
  123       -0.753944   1.000000
  124       -0.639399   1.000000
  125       -0.533581   1.000002
  126       -0.501066   1.000007
  127       -0.361848   1.000396
  128       -0.300970   1.001624
  129       -0.264276   1.003426
  130       -0.205906   1.009441
  131       -0.034601   1.032169
  132        0.021396   0.992778
  133        0.111243   0.784990
  134        0.166353   0.572558
  135        0.241477   0.265998
  136        0.298786   0.091012
  137        0.387300  -0.026955
  138        0.414556  -0.034633
  139        0.475324  -0.029445
  140        0.501698  -0.023499
  141        0.636768  -0.003088
  142        0.688137  -0.001045
  143        0.729333  -0.000392
  144        0.791146  -0.000075
  145        0.829713  -0.000024
  146        0.936189  -0.000001
  147        0.998431  -0.000000
  148        1.045716  -0.000000
  149        1.082807  -0.000000
  150        1.126760  -0.000000
  151        1.175720  -0.000000
  152        1.226853  -0.000000
  153        1.273824  -0.000000
  154        1.317279  -0.000000
  155        1.336367  -0.000000
  156        1.394067  -0.000000
  157        1.424568  -0.000000
  158        1.439519  -0.000000
  159        1.461961  -0.000000
  160        1.478156  -0.000000
  161        1.497836  -0.000000
  162        1.542824  -0.000000
  163        1.583584  -0.000000
  164        1.596067  -0.000000
  165        1.640545  -0.000000
  166        1.669241  -0.000000
  167        1.696853  -0.000000
  168        1.753407  -0.000000
  169        1.790349  -0.000000
  170        1.827228  -0.000000
  171        1.920833  -0.000000
  172        1.967802  -0.000000
  173        2.007180  -0.000000
  174        2.077586  -0.000000
  175        2.168560  -0.000000
  176        2.228505  -0.000000

  0.2000000E+00  0.1111111E+00  0.1262379E-14  0.4444444E-01
    1      -13.737119   1.000000
    2      -12.842799   1.000000
    3      -12.625713   1.000000
    4      -12.042460   1.000000
    5      -11.906114   1.000000
    6      -11.864659   1.000000
    7      -11.351160   1.000000
    8      -11.282120   1.000000
    9      -11.146469   1.000000
   10      -11.090856   1.000000
   11      -10.973270   1.000000
   12      -10.873137   1.000000
   13      -10.639697   1.000000
   14      -10.486369   1.000000
   15      -10.380162   1.000000
   16      -10.177231   1.000000
   17      -10.134187   1.000000
   18      -10.084944   1.000000
   19       -9.800825   1.000000
   20       -9.690198   1.000000
   21       -9.490904   1.000000
   22       -9.413493   1.000000
   23       -9.276279   1.000000
   24       -9.102480   1.000000
   25       -8.882855   1.000000
   26       -8.779128   1.000000
   27       -8.327901   1.000000
   28       -8.296164   1.000000
   29       -8.176485   1.000000
   30       -8.033029   1.000000
   31       -7.970991   1.000000
   32       -7.722644   1.000000
   33       -7.570469   1.000000
   34       -7.502671   1.000000
   35       -7.354058   1.000000
   36       -7.275950   1.000000
   37       -7.213586   1.000000
   38       -6.983510   1.000000
   39       -6.854945   1.000000
   40       -6.817768   1.000000
   41       -6.708670   1.000000
   42       -6.644300   1.000000
   43       -6.512792   1.000000
   44       -6.430650   1.000000
   45       -6.337868   1.000000
   46       -6.239202   1.000000
   47       -6.103214   1.000000
   48       -5.945570   1.000000
   49       -5.853910   1.000000
   50       -5.798709   1.000000
   51       -5.730233   1.000000
   52       -5.707658   1.000000
   53       -5.654262   1.000000
   54       -5.578425   1.000000
   55       -5.453618   1.000000
   56       -5.390758   1.000000
   57       -5.314476   1.000000
   58       -5.173900   1.000000
   59       -5.122822   1.000000
   60       -5.047032   1.000000
   61       -4.989669   1.000000
   62       -4.934008   1.000000
   63       -4.861160   1.000000
   64       -4.784676   1.000000
   65       -4.723442   1.000000
   66       -4.630182   1.000000
   67       -4.533504   1.000000
   68       -4.496396   1.000000
   69       -4.420289   1.000000
   70       -4.393862   1.000000
   71       -4.328143   1.000000
   72       -4.294958   1.000000
   73       -4.209892   1.000000
   74       -4.175895   1.000000
   75       -4.130327   1.000000
   76       -4.037235   1.000000
   77       -3.984999   1.000000
   78       -3.908377   1.000000
   79       -3.889141   1.000000
   80       -3.866630   1.000000
   81       -3.788820   1.000000
   82       -3.719947   1.000000
   83       -3.706579   1.000000
   84       -3.649991   1.000000
   85       -3.551641   1.000000
   86       -3.499435   1.000000
   87       -3.406937   1.000000
   88       -3.355804   1.000000
   89       -3.297625   1.000000
   90       -3.244980   1.000000
   91       -3.182013   1.000000
   92       -3.122198   1.000000
   93       -3.037804   1.000000
   94       -2.992479   1.000000
   95       -2.888695   1.000000
   96       -2.828955   1.000000
   97       -2.772669   1.000000
   98       -2.684604   1.000000
   99       -2.596979   1.000000
  100       -2.558381   1.000000
  101       -2.480240   1.000000
  102       -2.423622   1.000000
  103       -2.360421   1.000000
  104       -2.292824   1.000000
  105       -2.225711   1.000000
  106       -2.155644   1.000000
  107       -2.104975   1.000000
  108       -2.066925   1.000000
  109       -2.015232   1.000000
  110       -1.964136   1.000000
  111       -1.872008   1.000000
  112       -1.770907   1.000000
  113       -1.702694   1.000000
  114       -1.598542   1.000000
  115       -1.502101   1.000000
  116       -1.436995   1.000000
  117       -1.368817   1.000000
  118       -1.237255   1.000000
  119       -1.219843   1.000000
  120       -1.120622   1.000000
  121       -1.059776   1.000000
  122       -0.964710   1.000000
  123       -0.742823   1.000000
  124       -0.689007   1.000000
  125       -0.577590   1.000001
  126       -0.545641   1.000002
  127       -0.424277   1.000075
  128       -0.325183   1.000950
  129       -0.251169   1.004384
  130       -0.196770   1.010840
  131       -0.054653   1.035276
  132        0.005707   1.009504
  133        0.090875   0.849386
  134        0.169291   0.560258
  135        0.208439   0.395675
  136        0.285418   0.124875
  137        0.361374  -0.009448
  138        0.398322  -0.031185
  139        0.511060  -0.021344
  140        0.567699  -0.010244
  141        0.615611  -0.004606
  142        0.711880  -0.000601
  143        0.736009  -0.000332
  144        0.825227  -0.000028
  145        0.914483  -0.000002
  146        0.948966  -0.000000
  147        1.013136  -0.000000
  148        1.063125  -0.000000
  149        1.097117  -0.000000
  150        1.152755  -0.000000
  151        1.217460  -0.000000
  152        1.249076  -0.000000
  153        1.294774  -0.000000
  154        1.330343  -0.000000
  155        1.362842  -0.000000
  156        1.399169  -0.000000
  157        1.447264  -0.000000
  158        1.459293  -0.000000
  159        1.477918  -0.000000
  160        1.497335  -0.000000
  161        1.521128  -0.000000
  162        1.554081  -0.000000
  163        1.569420  -0.000000
  164        1.601924  -0.000000
  165        1.653019  -0.000000
  166        1.688241  -0.000000
  167        1.726307  -0.000000
  168        1.764496  -0.000000
  169        1.831029  -0.000000
  170        1.853601  -0.000000
  171        1.915648  -0.000000
  172        1.940408  -0.000000
  173        2.006444  -0.000000
  174        2.039670  -0.000000
  175        2.121179  -0.000000
  176        2.177925  -0.000000

  0.4000000E+00  0.1111111E+00  0.1262379E-14  0.4444444E-01
    1      -13.682563   1.000000
    2      -13.045644   1.000000
    3      -12.532950   1.000000
    4      -12.227096   1.000000
    5      -11.865325   1.000000
    6      -11.505126   1.000000
    7      -11.388234   1.000000
    8      -11.282131   1.000000
    9      -11.021052   1.000000
   10      -11.000281   1.000000
   11      -10.894288   1.000000