 running on   72 total cores
 distrk:  each k-point on   72 cores,    1 groups
 distr:  one band on    9 cores,    8 groups
 using from now: INCAR     
 vasp.5.4.4.18Apr17-6-g9f103f2a35 (build Dec  7 2020 12:43:57) complex           
 POSCAR found type information on POSCAR  Mo V  B  H 
 POSCAR found :  4 types and      73 ions
 scaLAPACK will be used
 LDA part: xc-table for Pade appr. of Perdew
 POSCAR, INCAR and KPOINTS ok, starting setup
 resort distribution
 resort distribution
 resort distribution
 resort distribution
 resort distribution
 resort distribution
 resort distribution
 resort distribution
 resort distribution
 resort distribution
 resort distribution
 resort distribution
 resort distribution
 resort distribution
 resort distribution
 resort distribution
 resort distribution
 resort distribution
 resort distribution
 resort distribution
 resort distribution
 resort distribution
 resort distribution
 resort distribution
 resort distribution
 resort distribution
 resort distribution
 resort distribution
 resort distribution
 resort distribution
 resort distribution
 resort distribution
 resort distribution
 resort distribution
 resort distribution
 resort distribution
 resort distribution
 resort distribution
 resort distribution
 resort distribution
 resort distribution
 resort distribution
 resort distribution
 resort distribution
 resort distribution
 resort distribution
 resort distribution
 resort distribution
 resort distribution
 resort distribution
 resort distribution
 resort distribution
 resort distribution
 resort distribution
 resort distribution
 resort distribution
 resort distribution
 resort distribution
 resort distribution
 resort distribution
 resort distribution
 resort distribution
 resort distribution
 resort distribution
 resort distribution
 resort distribution
 resort distribution
 resort distribution
 resort distribution
 resort distribution
 resort distribution
 resort distribution
 FFT: planning ...
 WAVECAR not read
 augmentation electrons   268.01690951006503     
 soft         electrons   0.0000000000000000     
 augmentation electrons   268.01690951006503     
 soft         electrons   0.0000000000000000     
 augmentation electrons   268.01690951006503     
 soft         electrons   0.0000000000000000     
 augmentation electrons   268.01690951006503     
 soft         electrons   0.0000000000000000     
 augmentation electrons   268.01690951006503     
 soft         electrons   0.0000000000000000     
 augmentation electrons   268.01690951006503     
 soft         electrons   0.0000000000000000     
 augmentation electrons   268.01690951006503     
 soft         electrons   0.0000000000000000     
 augmentation electrons   268.01690951006503     
 soft         electrons   0.0000000000000000     
 augmentation electrons   268.01690951006503     
 soft         electrons   0.0000000000000000     
 augmentation electrons   268.01690951006503     
 soft         electrons   0.0000000000000000     
 augmentation electrons   268.01690951006503     
 soft         electrons   0.0000000000000000     
 augmentation electrons   268.01690951006503     
 soft         electrons   0.0000000000000000     
 augmentation electrons   268.01690951006503     
 soft         electrons   0.0000000000000000     
 augmentation electrons   268.01690951006503     
 soft         electrons   0.0000000000000000     
 augmentation electrons   268.01690951006503     
 soft         electrons   0.0000000000000000     
 augmentation electrons   268.01690951006503     
 soft         electrons   0.0000000000000000     
 augmentation electrons   268.01690951006503     
 soft         electrons   0.0000000000000000     
 augmentation electrons   268.01690951006503     
 soft         electrons   0.0000000000000000     
 augmentation electrons   268.01690951006503     
 soft         electrons   0.0000000000000000     
 augmentation electrons   268.01690951006503     
 soft         electrons   0.0000000000000000     
 augmentation electrons   268.01690951006503     
 soft         electrons   0.0000000000000000     
 augmentation electrons   268.01690951006503     
 soft         electrons   0.0000000000000000     
 augmentation electrons   268.01690951006503     
 soft         electrons   0.0000000000000000     
 augmentation electrons   268.01690951006503     
 soft         electrons   0.0000000000000000     
 augmentation electrons   268.01690951006503     
 soft         electrons   0.0000000000000000     
 augmentation electrons   268.01690951006503     
 soft         electrons   0.0000000000000000     
 augmentation electrons   268.01690951006503     
 soft         electrons   0.0000000000000000     
 augmentation electrons   268.01690951006503     
 soft         electrons   0.0000000000000000     
 augmentation electrons   268.01690951006503     
 soft         electrons   0.0000000000000000     
 augmentation electrons   268.01690951006503     
 soft         electrons   0.0000000000000000     
 augmentation electrons   268.01690951006503     
 soft         electrons   0.0000000000000000     
 augmentation electrons   268.01690951006503     
 soft         electrons   0.0000000000000000     
 augmentation electrons   268.01690951006503     
 soft         electrons   0.0000000000000000     
 augmentation electrons   268.01690951006503     
 soft         electrons   0.0000000000000000     
 augmentation electrons   268.01690951006503     
 soft         electrons   0.0000000000000000     
 augmentation electrons   268.01690951006503     
 soft         electrons   0.0000000000000000     
 augmentation electrons   268.01690951006503     
 soft         electrons   0.0000000000000000     
 augmentation electrons   268.01690951006503     
 soft         electrons   0.0000000000000000     
 augmentation electrons   268.01690951006503     
 soft         electrons   0.0000000000000000     
 augmentation electrons   268.01690951006503     
 soft         electrons   0.0000000000000000     
 augmentation electrons   268.01690951006503     
 soft         electrons   0.0000000000000000     
 augmentation electrons   268.01690951006503     
 soft         electrons   0.0000000000000000     
 augmentation electrons   268.01690951006503     
 soft         electrons   0.0000000000000000     
 augmentation electrons   268.01690951006503     
 soft         electrons   0.0000000000000000     
 augmentation electrons   268.01690951006503     
 soft         electrons   0.0000000000000000     
 augmentation electrons   268.01690951006503     
 soft         electrons   0.0000000000000000     
 augmentation electrons   268.01690951006503     
 soft         electrons   0.0000000000000000     
 augmentation electrons   268.01690951006503     
 soft         electrons   0.0000000000000000     
 augmentation electrons   268.01690951006503     
 soft         electrons   0.0000000000000000     
 augmentation electrons   268.01690951006503     
 soft         electrons   0.0000000000000000     
 augmentation electrons   268.01690951006503     
 soft         electrons   0.0000000000000000     
 augmentation electrons   268.01690951006503     
 soft         electrons   0.0000000000000000     
 augmentation electrons   268.01690951006503     
 soft         electrons   0.0000000000000000     
 augmentation electrons   268.01690951006503     
 soft         electrons   0.0000000000000000     
 augmentation electrons   268.01690951006503     
 soft         electrons   0.0000000000000000     
 augmentation electrons   268.01690951006503     
 soft         electrons   0.0000000000000000     
 augmentation electrons   268.01690951006503     
 soft         electrons   0.0000000000000000     
 augmentation electrons   268.01690951006503     
 soft         electrons   0.0000000000000000     
 augmentation electrons   268.01690951006503     
 soft         electrons   0.0000000000000000     
 augmentation electrons   268.01690951006503     
 soft         electrons   0.0000000000000000     
 augmentation electrons   268.01690951006503     
 soft         electrons   0.0000000000000000     
 augmentation electrons   268.01690951006503     
 soft         electrons   0.0000000000000000     
 augmentation electrons   268.01690951006503     
 soft         electrons   0.0000000000000000     
 augmentation electrons   268.01690951006503     
 soft         electrons   0.0000000000000000     
 augmentation electrons   268.01690951006503     
 soft         electrons   0.0000000000000000     
 augmentation electrons   268.01690951006503     
 soft         electrons   0.0000000000000000     
 augmentation electrons   268.01690951006503     
 soft         electrons   0.0000000000000000     
 augmentation electrons   268.01690951006503     
 soft         electrons   0.0000000000000000     
 augmentation electrons   268.01690951006503     
 soft         electrons   0.0000000000000000     
 augmentation electrons   268.01690951006503     
 soft         electrons   0.0000000000000000     
 augmentation electrons   268.01690951006503     
 soft         electrons   0.0000000000000000     
 total        electrons   268.01690951006503     
 total        electrons   268.01690951006503     
 total        electrons   268.01690951006503     
 total        electrons   268.01690951006503     
 augmentation electrons   268.01690951006503     
 soft         electrons   0.0000000000000000     
 total        electrons   268.01690951006503     
 total        electrons   268.01690951006503     
 total        electrons   268.01690951006503     
 total        electrons   268.01690951006503     
 total        electrons   268.01690951006503     
 total        electrons   268.01690951006503     
 total        electrons   268.01690951006503     
 total        electrons   268.01690951006503     
 total        electrons   268.01690951006503     
 total        electrons   268.01690951006503     
 total        electrons   268.01690951006503     
 total        electrons   268.01690951006503     
 total        electrons   268.01690951006503     
 total        electrons   268.01690951006503     
 total        electrons   268.01690951006503     
 total        electrons   268.01690951006503     
 total        electrons   268.01690951006503     
 total        electrons   268.01690951006503     
 total        electrons   268.01690951006503     
 total        electrons   268.01690951006503     
 total        electrons   268.01690951006503     
 total        electrons   268.01690951006503     
 total        electrons   268.01690951006503     
 total        electrons   268.01690951006503     
 total        electrons   268.01690951006503     
 total        electrons   268.01690951006503     
 total        electrons   268.01690951006503     
 total        electrons   268.01690951006503     
 total        electrons   268.01690951006503     
 total        electrons   268.01690951006503     
 total        electrons   268.01690951006503     
 total        electrons   268.01690951006503     
 total        electrons   268.01690951006503     
 total        electrons   268.01690951006503     
 total        electrons   268.01690951006503     
 total        electrons   268.01690951006503     
 total        electrons   268.01690951006503     
 total        electrons   268.01690951006503     
 total        electrons   268.01690951006503     
 total        electrons   268.01690951006503     
 total        electrons   268.01690951006503     
 total        electrons   268.01690951006503     
 total        electrons   268.01690951006503     
 total        electrons   268.01690951006503     
 total        electrons   268.01690951006503     
 total        electrons   268.01690951006503     
 total        electrons   268.01690951006503     
 total        electrons   268.01690951006503     
 total        electrons   268.01690951006503     
 total        electrons   268.01690951006503     
 total        electrons   268.01690951006503     
 total        electrons   268.01690951006503     
 total        electrons   268.01690951006503     
 total        electrons   268.01690951006503     
 total        electrons   268.01690951006503     
 total        electrons   268.01690951006503     
 total        electrons   268.01690951006503     
 total        electrons   268.01690951006503     
 total        electrons   268.01690951006503     
 total        electrons   268.01690951006503     
 total        electrons   268.01690951006503     
 total        electrons   268.01690951006503     
 total        electrons   268.01690951006503     
 total        electrons   268.01690951006503     
 total        electrons   268.01690951006503     
 total        electrons   268.01690951006503     
 total        electrons   268.01690951006503     
 total        electrons   268.01690951006503     
 augmentation electrons   853.25631657386850     
 soft         electrons   0.0000000000000000     
 augmentation electrons   853.25631657386850     
 soft         electrons   0.0000000000000000     
 augmentation electrons   853.25631657386850     
 soft         electrons   0.0000000000000000     
 augmentation electrons   853.25631657386850     
 soft         electrons   0.0000000000000000     
 augmentation electrons   853.25631657386850     
 soft         electrons   0.0000000000000000     
 augmentation electrons   853.25631657386850     
 soft         electrons   0.0000000000000000     
 augmentation electrons   853.25631657386850     
 soft         electrons   0.0000000000000000     
 augmentation electrons   853.25631657386850     
 soft         electrons   0.0000000000000000     
 augmentation electrons   853.25631657386850     
 soft         electrons   0.0000000000000000     
 augmentation electrons   853.25631657386850     
 soft         electrons   0.0000000000000000     
 augmentation electrons   853.25631657386850     
 soft         electrons   0.0000000000000000     
 augmentation electrons   853.25631657386850     
 soft         electrons   0.0000000000000000     
 augmentation electrons   853.25631657386850     
 soft         electrons   0.0000000000000000     
 augmentation electrons   853.25631657386850     
 soft         electrons   0.0000000000000000     
 augmentation electrons   853.25631657386850     
 soft         electrons   0.0000000000000000     
 augmentation electrons   853.25631657386850     
 soft         electrons   0.0000000000000000     
 augmentation electrons   853.25631657386850     
 soft         electrons   0.0000000000000000     
 augmentation electrons   853.25631657386850     
 soft         electrons   0.0000000000000000     
 augmentation electrons   853.25631657386850     
 soft         electrons   0.0000000000000000     
 augmentation electrons   853.25631657386850     
 soft         electrons   0.0000000000000000     
 augmentation electrons   853.25631657386850     
 soft         electrons   0.0000000000000000     
 augmentation electrons   853.25631657386850     
 soft         electrons   0.0000000000000000     
 augmentation electrons   853.25631657386850     
 soft         electrons   0.0000000000000000     
 augmentation electrons   853.25631657386850     
 soft         electrons   0.0000000000000000     
 augmentation electrons   853.25631657386850     
 soft         electrons   0.0000000000000000     
 augmentation electrons   853.25631657386850     
 soft         electrons   0.0000000000000000     
 augmentation electrons   853.25631657386850     
 soft         electrons   0.0000000000000000     
 augmentation electrons   853.25631657386850     
 soft         electrons   0.0000000000000000     
 augmentation electrons   853.25631657386850     
 soft         electrons   0.0000000000000000     
 augmentation electrons   853.25631657386850     
 soft         electrons   0.0000000000000000     
 augmentation electrons   853.25631657386850     
 soft         electrons   0.0000000000000000     
 augmentation electrons   853.25631657386850     
 soft         electrons   0.0000000000000000     
 augmentation electrons   853.25631657386850     
 soft         electrons   0.0000000000000000     
 augmentation electrons   853.25631657386850     
 soft         electrons   0.0000000000000000     
 augmentation electrons   853.25631657386850     
 soft         electrons   0.0000000000000000     
 augmentation electrons   853.25631657386850     
 soft         electrons   0.0000000000000000     
 augmentation electrons   853.25631657386850     
 soft         electrons   0.0000000000000000     
 augmentation electrons   853.25631657386850     
 soft         electrons   0.0000000000000000     
 augmentation electrons   853.25631657386850     
 soft         electrons   0.0000000000000000     
 augmentation electrons   853.25631657386850     
 soft         electrons   0.0000000000000000     
 augmentation electrons   853.25631657386850     
 soft         electrons   0.0000000000000000     
 augmentation electrons   853.25631657386850     
 soft         electrons   0.0000000000000000     
 augmentation electrons   853.25631657386850     
 soft         electrons   0.0000000000000000     
 augmentation electrons   853.25631657386850     
 soft         electrons   0.0000000000000000     
 augmentation electrons   853.25631657386850     
 soft         electrons   0.0000000000000000     
 augmentation electrons   853.25631657386850     
 soft         electrons   0.0000000000000000     
 augmentation electrons   853.25631657386850     
 soft         electrons   0.0000000000000000     
 augmentation electrons   853.25631657386850     
 soft         electrons   0.0000000000000000     
 augmentation electrons   853.25631657386850     
 soft         electrons   0.0000000000000000     
 augmentation electrons   853.25631657386850     
 soft         electrons   0.0000000000000000     
 augmentation electrons   853.25631657386850     
 soft         electrons   0.0000000000000000     
 augmentation electrons   853.25631657386850     
 soft         electrons   0.0000000000000000     
 augmentation electrons   853.25631657386850     
 soft         electrons   0.0000000000000000     
 augmentation electrons   853.25631657386850     
 soft         electrons   0.0000000000000000     
 augmentation electrons   853.25631657386850     
 soft         electrons   0.0000000000000000     
 augmentation electrons   853.25631657386850     
 soft         electrons   0.0000000000000000     
 augmentation electrons   853.25631657386850     
 soft         electrons   0.0000000000000000     
 augmentation electrons   853.25631657386850     
 soft         electrons   0.0000000000000000     
 augmentation electrons   853.25631657386850     
 soft         electrons   0.0000000000000000     
 augmentation electrons   853.25631657386850     
 soft         electrons   0.0000000000000000     
 augmentation electrons   853.25631657386850     
 soft         electrons   0.0000000000000000     
 augmentation electrons   853.25631657386850     
 soft         electrons   0.0000000000000000     
 augmentation electrons   853.25631657386850     
 soft         electrons   0.0000000000000000     
 augmentation electrons   853.25631657386850     
 soft         electrons   0.0000000000000000     
 augmentation electrons   853.25631657386850     
 soft         electrons   0.0000000000000000     
 augmentation electrons   853.25631657386850     
 soft         electrons   0.0000000000000000     
 augmentation electrons   853.25631657386850     
 soft         electrons   0.0000000000000000     
 augmentation electrons   853.25631657386850     
 soft         electrons   0.0000000000000000     
 augmentation electrons   853.25631657386850     
 soft         electrons   0.0000000000000000     
 augmentation electrons   853.25631657386850     
 soft         electrons   0.0000000000000000     
 augmentation electrons   853.25631657386850     
 soft         electrons   0.0000000000000000     
 augmentation electrons   853.25631657386850     
 soft         electrons   0.0000000000000000     
 total        electrons   853.25631657386850     
 total        electrons   853.25631657386850     
 total        electrons   853.25631657386850     
 total        electrons   853.25631657386850     
 total        electrons   853.25631657386850     
 total        electrons   853.25631657386850     
 total        electrons   853.25631657386850     
 total        electrons   853.25631657386850     
 total        electrons   853.25631657386850     
 total        electrons   853.25631657386850     
 total        electrons   853.25631657386850     
 total        electrons   853.25631657386850     
 total        electrons   853.25631657386850     
 total        electrons   853.25631657386850     
 total        electrons   853.25631657386850     
 total        electrons   853.25631657386850     
 total        electrons   853.25631657386850     
 total        electrons   853.25631657386850     
 total        electrons   853.25631657386850     
 total        electrons   853.25631657386850     
 total        electrons   853.25631657386850     
 total        electrons   853.25631657386850     
 total        electrons   853.25631657386850     
 total        electrons   853.25631657386850     
 total        electrons   853.25631657386850     
 total        electrons   853.25631657386850     
 total        electrons   853.25631657386850     
 total        electrons   853.25631657386850     
 total        electrons   853.25631657386850     
 total        electrons   853.25631657386850     
 total        electrons   853.25631657386850     
 total        electrons   853.25631657386850     
 total        electrons   853.25631657386850     
 total        electrons   853.25631657386850     
 total        electrons   853.25631657386850     
 total        electrons   853.25631657386850     
 total        electrons   853.25631657386850     
 total        electrons   853.25631657386850     
 total        electrons   853.25631657386850     
 total        electrons   853.25631657386850     
 total        electrons   853.25631657386850     
 total        electrons   853.25631657386850     
 total        electrons   853.25631657386850     
 total        electrons   853.25631657386850     
 total        electrons   853.25631657386850     
 total        electrons   853.25631657386850     
 total        electrons   853.25631657386850     
 total        electrons   853.25631657386850     
 total        electrons   853.25631657386850     
 total        electrons   853.25631657386850     
 total        electrons   853.25631657386850     
 total        electrons   853.25631657386850     
 total        electrons   853.25631657386850     
 total        electrons   853.25631657386850     
 total        electrons   853.25631657386850     
 total        electrons   853.25631657386850     
 total        electrons   853.25631657386850     
 total        electrons   853.25631657386850     
 total        electrons   853.25631657386850     
 total        electrons   853.25631657386850     
 total        electrons   853.25631657386850     
 total        electrons   853.25631657386850     
 total        electrons   853.25631657386850     
 total        electrons   853.25631657386850     
 total        electrons   853.25631657386850     
 total        electrons   853.25631657386850     
 total        electrons   853.25631657386850     
 total        electrons   853.25631657386850     
 total        electrons   853.25631657386850     
 total        electrons   853.25631657386850     
 total        electrons   853.25631657386850     
 total        electrons   853.25631657386850     
 entering main loop
       N       E                     dE             d eps       ncg     rms          rms(c)
DAV:   1     0.229436530145E+04    0.22944E+04   -0.95990E+04  8096   0.124E+03
DAV:   2    -0.218053594526E+03   -0.25124E+04   -0.23247E+04  9296   0.304E+02
DAV:   3    -0.632329504775E+03   -0.41428E+03   -0.39486E+03 11456   0.144E+02
DAV:   4    -0.665603032529E+03   -0.33274E+02   -0.31940E+02 13096   0.453E+01
DAV:   5    -0.667397313514E+03   -0.17943E+01   -0.17415E+01 13736   0.103E+01    0.135E+02
RMM:   6    -0.629410740901E+03    0.37987E+02   -0.12336E+03 11421   0.921E+01    0.759E+01
RMM:   7    -0.740237808815E+03   -0.11083E+03   -0.42888E+02 10763   0.599E+01    0.549E+01
RMM:   8    -0.627914062794E+03    0.11232E+03   -0.20483E+02 11102   0.268E+01    0.437E+01
RMM:   9    -0.573815834768E+03    0.54098E+02   -0.46112E+01  9235   0.215E+01    0.267E+01
RMM:  10    -0.564248740538E+03    0.95671E+01   -0.50173E+01 10136   0.170E+01    0.208E+01
RMM:  11    -0.562469542621E+03    0.17792E+01   -0.83199E+00  8678   0.944E+00    0.174E+01
RMM:  12    -0.562069652890E+03    0.39989E+00   -0.46747E+00 10754   0.338E+00    0.153E+01
RMM:  13    -0.561766384513E+03    0.30327E+00   -0.55406E-01 11277   0.117E+00    0.142E+01
RMM:  14    -0.561578146754E+03    0.18824E+00   -0.16359E+00  9116   0.376E+00    0.115E+01
RMM:  15    -0.560966611171E+03    0.61154E+00   -0.21636E+00  8156   0.529E+00    0.616E+00
RMM:  16    -0.560604875568E+03    0.36174E+00   -0.15485E+00  8852   0.336E+00    0.402E+00
RMM:  17    -0.560508613203E+03    0.96262E-01   -0.78000E-01 10539   0.189E+00    0.286E+00
RMM:  18    -0.560483238321E+03    0.25375E-01   -0.34273E-01 10376   0.134E+00    0.223E+00
RMM:  19    -0.560473745611E+03    0.94927E-02   -0.17489E-01  9786   0.108E+00    0.178E+00
RMM:  20    -0.560444465131E+03    0.29280E-01   -0.10312E-01  8832   0.872E-01    0.935E-01
RMM:  21    -0.560436193291E+03    0.82718E-02   -0.51197E-02 10704   0.384E-01    0.440E-01
RMM:  22    -0.560436579235E+03   -0.38594E-03   -0.12834E-02  8497   0.339E-01    0.476E-01
RMM:  23    -0.560435224082E+03    0.13552E-02   -0.59562E-03  8754   0.227E-01    0.254E-01
RMM:  24    -0.560436339332E+03   -0.11153E-02   -0.56431E-03  8642   0.195E-01    0.297E-01
RMM:  25    -0.560436278861E+03    0.60472E-04   -0.22332E-03  9919   0.984E-02    0.887E-02
RMM:  26    -0.560438052832E+03   -0.17740E-02   -0.22130E-03  9031   0.119E-01    0.250E-01
RMM:  27    -0.560438054635E+03   -0.18035E-05   -0.54535E-04  8460   0.689E-02    0.669E-02
RMM:  28    -0.560439316059E+03   -0.12614E-02   -0.84028E-04 10472   0.450E-02    0.375E-02
RMM:  29    -0.560439781504E+03   -0.46545E-03   -0.28158E-04 10523   0.251E-02    0.405E-02
RMM:  30    -0.560440065263E+03   -0.28376E-03   -0.11228E-04  9777   0.176E-02    0.300E-02
RMM:  31    -0.560440166496E+03   -0.10123E-03   -0.47978E-05  8694   0.169E-02    0.146E-02
RMM:  32    -0.560440299402E+03   -0.13291E-03   -0.25773E-05  7798   0.101E-02    0.135E-02
RMM:  33    -0.560440406861E+03   -0.10746E-03   -0.16890E-05  7410   0.641E-03    0.562E-03
RMM:  34    -0.560440555102E+03   -0.14824E-03   -0.12667E-05  6428   0.570E-03    0.518E-03
RMM:  35    -0.560440728774E+03   -0.17367E-03   -0.10415E-05  6216   0.526E-03    0.596E-03
RMM:  36    -0.560440813520E+03   -0.84746E-04   -0.51792E-06  6001   0.387E-03    0.405E-03
RMM:  37    -0.560440882735E+03   -0.69215E-04   -0.53388E-06  5927   0.322E-03    0.467E-03
RMM:  38    -0.560440912097E+03   -0.29363E-04   -0.33060E-06  5755   0.531E-03    0.521E-03
RMM:  39    -0.560440933598E+03   -0.21501E-04   -0.31261E-06  5788   0.456E-03    0.387E-03
RMM:  40    -0.560440940058E+03   -0.64593E-05   -0.97433E-07  5045   0.271E-03    0.141E-03
RMM:  41    -0.560440946746E+03   -0.66886E-05   -0.90576E-07  4786   0.221E-03    0.178E-03
RMM:  42    -0.560440948951E+03   -0.22044E-05   -0.45977E-07  4159   0.161E-03    0.370E-04
RMM:  43    -0.560440949807E+03   -0.85627E-06   -0.22766E-07  3352   0.975E-04
   1 F= -.56044095E+03 E0= -.56042738E+03  d E =-.560441E+03
 curvature:   0.00 expect dE= 0.000E+00 dE for cont linesearch  0.000E+00
 trial: gam= 0.00000 g(F)=  0.101E+00 g(S)=  0.000E+00 ort = 0.000E+00 (trialstep = 0.100E+01)
 search vector abs. value=  0.101E+00
 bond charge predicted
       N       E                     dE             d eps       ncg     rms          rms(c)
DAV:   1    -0.560512396755E+03   -0.71448E-01   -0.17223E+00  9120   0.280E+00    0.443E-01
RMM:   2    -0.560514154666E+03   -0.17579E-02   -0.40500E-02  9523   0.606E-01    0.431E-01
RMM:   3    -0.560519916286E+03   -0.57616E-02   -0.11991E-02  9594   0.341E-01    0.771E-01
RMM:   4    -0.560512590446E+03    0.73258E-02   -0.47822E-03  9783   0.184E-01    0.222E-01
RMM:   5    -0.560513131854E+03   -0.54141E-03   -0.26836E-03  8685   0.167E-01    0.305E-01
RMM:   6    -0.560512192712E+03    0.93914E-03   -0.13626E-03  9211   0.116E-01    0.135E-01
RMM:   7    -0.560512024688E+03    0.16802E-03   -0.52275E-04  8878   0.734E-02    0.792E-02
RMM:   8    -0.560511947119E+03    0.77568E-04   -0.21340E-04  9937   0.380E-02    0.314E-02
RMM:   9    -0.560511962195E+03   -0.15075E-04   -0.11852E-04 10010   0.239E-02    0.401E-02
RMM:  10    -0.560511943011E+03    0.19184E-04   -0.37673E-05  8178   0.198E-02    0.131E-02
RMM:  11    -0.560511945711E+03   -0.27003E-05   -0.26988E-05  8591   0.977E-03    0.141E-02
RMM:  12    -0.560511943336E+03    0.23751E-05   -0.74888E-06  6349   0.810E-03    0.739E-03
RMM:  13    -0.560511942959E+03    0.37652E-06   -0.30951E-06  5806   0.506E-03
   2 F= -.56051194E+03 E0= -.56049872E+03  d E =-.709932E-01
 trial-energy change:   -0.070993  1 .order   -0.070082   -0.100947   -0.039218
 step:   1.5583(harm=  1.6353)  dis= 0.01822  next Energy=  -560.523049 (dE=-0.821E-01)
 bond charge predicted
       N       E                     dE             d eps       ncg     rms          rms(c)
DAV:   1    -0.560523330915E+03   -0.11388E-01   -0.54603E-01  8560   0.158E+00    0.260E-01
RMM:   2    -0.560523904283E+03   -0.57337E-03   -0.13330E-02  9406   0.350E-01    0.258E-01
RMM:   3    -0.560525702597E+03   -0.17983E-02   -0.38702E-03  9609   0.195E-01    0.438E-01
RMM:   4    -0.560523315892E+03    0.23867E-02   -0.16346E-03  9779   0.106E-01    0.133E-01
RMM:   5    -0.560523493115E+03   -0.17722E-03   -0.91780E-04  8617   0.989E-02    0.179E-01
RMM:   6    -0.560523163278E+03    0.32984E-03   -0.43572E-04  9242   0.663E-02    0.690E-02
RMM:   7    -0.560523122657E+03    0.40621E-04   -0.15868E-04  8999   0.395E-02    0.467E-02
RMM:   8    -0.560523097059E+03    0.25599E-04   -0.65652E-05  9493   0.224E-02    0.187E-02
RMM:   9    -0.560523101219E+03   -0.41600E-05   -0.39243E-05  9096   0.145E-02    0.216E-02
RMM:  10    -0.560523095692E+03    0.55270E-05   -0.12281E-05  6826   0.114E-02    0.799E-03
RMM:  11    -0.560523096900E+03   -0.12082E-05   -0.90572E-06  6739   0.692E-03    0.942E-03
RMM:  12    -0.560523096126E+03    0.77365E-06   -0.27406E-06  5584   0.637E-03
   3 F= -.56052310E+03 E0= -.56051007E+03  d E =-.821463E-01
 curvature:  -0.81 expect dE=-0.213E-02 dE for cont linesearch -0.828E-08
 trial: gam= 0.02590 g(F)=  0.265E-02 g(S)=  0.000E+00 ort = 0.322E-04 (trialstep = 0.111E+01)
 search vector abs. value=  0.272E-02
 bond charge predicted
       N       E                     dE             d eps       ncg     rms          rms(c)
DAV:   1    -0.560525815378E+03   -0.27185E-02   -0.53290E-02  8488   0.498E-01    0.678E-02
RMM:   2    -0.560525952200E+03   -0.13682E-03   -0.98301E-04  8412   0.123E-01    0.100E-01
RMM:   3    -0.560525935529E+03    0.16671E-04   -0.25417E-04  9879   0.529E-02    0.747E-02
RMM:   4    -0.560525920540E+03    0.14989E-04   -0.12641E-04 10702   0.223E-02    0.518E-02
RMM:   5    -0.560525886824E+03    0.33716E-04   -0.10067E-04  9123   0.293E-02    0.366E-02
RMM:   6    -0.560525896369E+03   -0.95451E-05   -0.67012E-05  8978   0.238E-02    0.474E-02
RMM:   7    -0.560525874854E+03    0.21515E-04   -0.28776E-05  7867   0.188E-02    0.180E-02
RMM:   8    -0.560525871174E+03    0.36797E-05   -0.64403E-06  6456   0.858E-03    0.807E-03
RMM:   9    -0.560525870908E+03    0.26624E-06   -0.28154E-06  5538   0.533E-03
   4 F= -.56052587E+03 E0= -.56051285E+03  d E =-.277478E-02
 ZBRENT: can't locate minimum, use default step
 trial-energy change:   -0.002775  1 .order   -0.002768   -0.002944   -0.002593
 step:   4.4466(harm=  9.3272)  dis= 0.00000  next Energy=  -560.532388 (dE=-0.929E-02)
 bond charge predicted
       N       E                     dE             d eps       ncg     rms          rms(c)
DAV:   1    -0.560531644391E+03   -0.57732E-02   -0.48042E-01  8368   0.149E+00    0.203E-01
RMM:   2    -0.560532917250E+03   -0.12729E-02   -0.88917E-03  8649   0.356E-01    0.307E-01
RMM:   3    -0.560532630263E+03    0.28699E-03   -0.22317E-03  9882   0.157E-01    0.215E-01
RMM:   4    -0.560532592504E+03    0.37759E-04   -0.11940E-03 10758   0.689E-02    0.162E-01
RMM:   5    -0.560532236731E+03    0.35577E-03   -0.91684E-04  9049   0.902E-02    0.110E-01
RMM:   6    -0.560532287174E+03   -0.50443E-04   -0.59790E-04  9178   0.704E-02    0.132E-01
RMM:   7    -0.560532128693E+03    0.15848E-03   -0.25552E-04  8377   0.550E-02    0.557E-02
RMM:   8    -0.560532093087E+03    0.35606E-04   -0.61961E-05  8891   0.249E-02    0.244E-02
RMM:   9    -0.560532088606E+03    0.44812E-05   -0.29537E-05  8407   0.128E-02    0.115E-02
RMM:  10    -0.560532088854E+03   -0.24810E-06   -0.11940E-05  7587   0.726E-03    0.835E-03
RMM:  11    -0.560532088573E+03    0.28104E-06   -0.35672E-06  5789   0.574E-03
   5 F= -.56053209E+03 E0= -.56051910E+03  d E =-.899245E-02
 curvature:  -3.10 expect dE=-0.393E-02 dE for cont linesearch -0.217E-02
 ZBRENT: increasing intervall
 opt :  11.1166  next Energy=  -560.534918 (dE=-0.118E-01)
 bond charge predicted
       N       E                     dE             d eps       ncg     rms          rms(c)
DAV:   1    -0.560532960920E+03   -0.87207E-03   -0.19204E+00  8160   0.298E+00    0.416E-01
RMM:   2    -0.560538582079E+03   -0.56212E-02   -0.37009E-02  8568   0.731E-01    0.656E-01
RMM:   3    -0.560536779428E+03    0.18027E-02   -0.92802E-03  9841   0.323E-01    0.424E-01
RMM:   4    -0.560536945313E+03   -0.16588E-03   -0.51331E-03 10797   0.140E-01    0.339E-01
RMM:   5    -0.560535353576E+03    0.15917E-02   -0.39193E-03  9167   0.183E-01    0.239E-01
RMM:   6    -0.560535603181E+03   -0.24961E-03   -0.27569E-03  9053   0.154E-01    0.285E-01
RMM:   7    -0.560534834875E+03    0.76831E-03   -0.11627E-03  8441   0.117E-01    0.113E-01
RMM:   8    -0.560534687124E+03    0.14775E-03   -0.27192E-04  8781   0.537E-02    0.523E-02
RMM:   9    -0.560534665662E+03    0.21463E-04   -0.12425E-04  9637   0.267E-02    0.233E-02
RMM:  10    -0.560534669312E+03   -0.36501E-05   -0.56621E-05 10285   0.143E-02    0.185E-02
RMM:  11    -0.560534669228E+03    0.83439E-07   -0.17074E-05  7717   0.107E-02    0.129E-02
RMM:  12    -0.560534669864E+03   -0.63604E-06   -0.60689E-06  6254   0.719E-03
   6 F= -.56053467E+03 E0= -.56052179E+03  d E =-.115737E-01
 curvature:  -4.05 expect dE=-0.142E-01 dE for cont linesearch -0.608E-03
 ZBRENT: bracketing found
 ZBRENT: interpolating
 opt :   9.0036  next Energy=  -560.535345 (dE=-0.122E-01)
 bond charge predicted
       N       E                     dE             d eps       ncg     rms          rms(c)
DAV:   1    -0.560535148514E+03   -0.47929E-03   -0.19280E-01  8416   0.945E-01    0.133E-01
RMM:   2    -0.560535737777E+03   -0.58926E-03   -0.37944E-03  8662   0.233E-01    0.214E-01
RMM:   3    -0.560535531637E+03    0.20614E-03   -0.93299E-04  9848   0.103E-01    0.134E-01
RMM:   4    -0.560535539252E+03   -0.76154E-05   -0.49620E-04 10834   0.404E-02    0.103E-01
RMM:   5    -0.560535409269E+03    0.12998E-03   -0.38885E-04  9325   0.556E-02    0.798E-02
RMM:   6    -0.560535430452E+03   -0.21183E-04   -0.28916E-04  8989   0.502E-02    0.919E-02
RMM:   7    -0.560535349828E+03    0.80624E-04   -0.12031E-04  8516   0.374E-02    0.353E-02
RMM:   8    -0.560535336004E+03    0.13825E-04   -0.26994E-05  8425   0.169E-02    0.169E-02
RMM:   9    -0.560535334016E+03    0.19881E-05   -0.10811E-05  6977   0.863E-03    0.731E-03
RMM:  10    -0.560535334679E+03   -0.66330E-06   -0.43838E-06  5896   0.533E-03
   7 F= -.56053533E+03 E0= -.56052241E+03  d E =-.122386E-01
 curvature:  -4.49 expect dE=-0.101E-01 dE for cont linesearch -0.128E-05
 trial: gam= 0.86971 g(F)=  0.225E-02 g(S)=  0.000E+00 ort = 0.278E-04 (trialstep = 0.168E+01)
 search vector abs. value=  0.435E-02
 bond charge predicted
       N       E                     dE             d eps       ncg     rms          rms(c)
DAV:   1    -0.560537102553E+03   -0.17685E-02   -0.20213E-01  8304   0.971E-01    0.142E-01
RMM:   2    -0.560537426012E+03   -0.32346E-03   -0.42415E-03  8854   0.233E-01    0.162E-01
RMM:   3    -0.560537691929E+03   -0.26592E-03   -0.11792E-03 10004   0.107E-01    0.196E-01
RMM:   4    -0.560537315042E+03    0.37689E-03   -0.54735E-04 10254   0.538E-02    0.844E-02
RMM:   5    -0.560537294544E+03    0.20498E-04   -0.37746E-04  9132   0.586E-02    0.958E-02
RMM:   6    -0.560537243093E+03    0.51451E-04   -0.25295E-04  8990   0.484E-02    0.689E-02
RMM:   7    -0.560537209777E+03    0.33316E-04   -0.10723E-04  8506   0.350E-02    0.498E-02
RMM:   8    -0.560537179313E+03    0.30464E-04   -0.31969E-05  8654   0.189E-02    0.109E-02
RMM:   9    -0.560537180472E+03   -0.11591E-05   -0.15637E-05  8025   0.880E-03    0.125E-02
RMM:  10    -0.560537179191E+03    0.12806E-05   -0.47775E-06  5880   0.730E-03    0.668E-03
RMM:  11    -0.560537179049E+03    0.14266E-06   -0.22118E-06  5445   0.447E-03
   8 F= -.56053718E+03 E0= -.56052431E+03  d E =-.184437E-02
 trial-energy change:   -0.001844  1 .order   -0.001839   -0.003814    0.000136
 step:   1.6224(harm=  1.6224)  dis= 0.00255  next Energy=  -560.537176 (dE=-0.184E-02)
 reached required accuracy - stopping structural energy minimisation
 augmentation electrons   27.785227524139035     
 soft         electrons   240.29051660637572     
 augmentation electrons   27.785227524139035     
 soft         electrons   240.29051660637572     
 augmentation electrons   27.785227524139035     
 soft         electrons   240.29051660637572     
 augmentation electrons   27.785227524139035     
 soft         electrons   240.29051660637572     
 augmentation electrons   27.785227524139035     
 soft         electrons   240.29051660637572     
 augmentation electrons   27.785227524139035     
 soft         electrons   240.29051660637572     
 augmentation electrons   27.785227524139035     
 soft         electrons   240.29051660637572     
 augmentation electrons   27.785227524139035     
 soft         electrons   240.29051660637572     
 augmentation electrons   27.785227524139035     
 soft         electrons   240.29051660637572     
 augmentation electrons   27.785227524139035     
 soft         electrons   240.29051660637572     
 augmentation electrons   27.785227524139035     
 soft         electrons   240.29051660637572     
 augmentation electrons   27.785227524139035     
 soft         electrons   240.29051660637572     
 augmentation electrons   27.785227524139035     
 soft         electrons   240.29051660637572     
 augmentation electrons   27.785227524139035     
 soft         electrons   240.29051660637572     
 augmentation electrons   27.785227524139035     
 soft         electrons   240.29051660637572     
 augmentation electrons   27.785227524139035     
 soft         electrons   240.29051660637572     
 augmentation electrons   27.785227524139035     
 soft         electrons   240.29051660637572     
 augmentation electrons   27.785227524139035     
 soft         electrons   240.29051660637572     
 augmentation electrons   27.785227524139035     
 augmentation electrons   27.785227524139035     
 soft         electrons   240.29051660637572     
 augmentation electrons   27.785227524139035     
 soft         electrons   240.29051660637572     
 augmentation electrons   27.785227524139035     
 soft         electrons   240.29051660637572     
 augmentation electrons   27.785227524139035     
 soft         electrons   240.29051660637572     
 augmentation electrons   27.785227524139035     
 soft         electrons   240.29051660637572     
 augmentation electrons   27.785227524139035     
 soft         electrons   240.29051660637572     
 augmentation electrons   27.785227524139035     
 soft         electrons   240.29051660637572     
 augmentation electrons   27.785227524139035     
 soft         electrons   240.29051660637572     
 augmentation electrons   27.785227524139035     
 soft         electrons   240.29051660637572     
 augmentation electrons   27.785227524139035     
 soft         electrons   240.29051660637572     
 augmentation electrons   27.785227524139035     
 soft         electrons   240.29051660637572     
 augmentation electrons   27.785227524139035     
 soft         electrons   240.29051660637572     
 augmentation electrons   27.785227524139035     
 soft         electrons   240.29051660637572     
 augmentation electrons   27.785227524139035     
 soft         electrons   240.29051660637572     
 augmentation electrons   27.785227524139035     
 soft         electrons   240.29051660637572     
 augmentation electrons   27.785227524139035     
 soft         electrons   240.29051660637572     
 augmentation electrons   27.785227524139035     
 soft         electrons   240.29051660637572     
 augmentation electrons   27.785227524139035     
 soft         electrons   240.29051660637572     
 augmentation electrons   27.785227524139035     
 soft         electrons   240.29051660637572     
 augmentation electrons   27.785227524139035     
 soft         electrons   240.29051660637572     
 augmentation electrons   27.785227524139035     
 soft         electrons   240.29051660637572     
 augmentation electrons   27.785227524139035     
 soft         electrons   240.29051660637572     
 augmentation electrons   27.785227524139035     
 soft         electrons   240.29051660637572     
 augmentation electrons   27.785227524139035     
 soft         electrons   240.29051660637572     
 augmentation electrons   27.785227524139035     
 soft         electrons   240.29051660637572     
 augmentation electrons   27.785227524139035     
 soft         electrons   240.29051660637572     
 augmentation electrons   27.785227524139035     
 soft         electrons   240.29051660637572     
 augmentation electrons   27.785227524139035     
 soft         electrons   240.29051660637572     
 augmentation electrons   27.785227524139035     
 soft         electrons   240.29051660637572     
 augmentation electrons   27.785227524139035     
 soft         electrons   240.29051660637572     
 augmentation electrons   27.785227524139035     
 soft         electrons   240.29051660637572     
 augmentation electrons   27.785227524139035     
 soft         electrons   240.29051660637572     
 augmentation electrons   27.785227524139035     
 soft         electrons   240.29051660637572     
 augmentation electrons   27.785227524139035     
 soft         electrons   240.29051660637572     
 augmentation electrons   27.785227524139035     
 soft         electrons   240.29051660637572     
 augmentation electrons   27.785227524139035     
 soft         electrons   240.29051660637572     
 augmentation electrons   27.785227524139035     
 soft         electrons   240.29051660637572     
 augmentation electrons   27.785227524139035     
 soft         electrons   240.29051660637572     
 augmentation electrons   27.785227524139035     
 soft         electrons   240.29051660637572     
 augmentation electrons   27.785227524139035     
 soft         electrons   240.29051660637572     
 augmentation electrons   27.785227524139035     
 soft         electrons   240.29051660637572     
 augmentation electrons   27.785227524139035     
 soft         electrons   240.29051660637572     
 augmentation electrons   27.785227524139035     
 soft         electrons   240.29051660637572     
 augmentation electrons   27.785227524139035     
 soft         electrons   240.29051660637572     
 augmentation electrons   27.785227524139035     
 soft         electrons   240.29051660637572     
 augmentation electrons   27.785227524139035     
 soft         electrons   240.29051660637572     
 augmentation electrons   27.785227524139035     
 soft         electrons   240.29051660637572     
 augmentation electrons   27.785227524139035     
 soft         electrons   240.29051660637572     
 augmentation electrons   27.785227524139035     
 soft         electrons   240.29051660637572     
 augmentation electrons   27.785227524139035     
 soft         electrons   240.29051660637572     
 augmentation electrons   27.785227524139035     
 soft         electrons   240.29051660637572     
 augmentation electrons   27.785227524139035     
 soft         electrons   240.29051660637572     
 augmentation electrons   27.785227524139035     
 soft         electrons   240.29051660637572     
 soft         electrons   240.29051660637572     
 total        electrons   268.07574413051475     
 total        electrons   268.07574413051475     
 total        electrons   268.07574413051475     
 total        electrons   268.07574413051475     
 total        electrons   268.07574413051475     
 total        electrons   268.07574413051475     
 total        electrons   268.07574413051475     
 total        electrons   268.07574413051475     
 total        electrons   268.07574413051475     
 total        electrons   268.07574413051475     
 total        electrons   268.07574413051475     
 total        electrons   268.07574413051475     
 total        electrons   268.07574413051475     
 total        electrons   268.07574413051475     
 total        electrons   268.07574413051475     
 total        electrons   268.07574413051475     
 total        electrons   268.07574413051475     
 total        electrons   268.07574413051475     
 total        electrons   268.07574413051475     
 total        electrons   268.07574413051475     
 total        electrons   268.07574413051475     
 total        electrons   268.07574413051475     
 total        electrons   268.07574413051475     
 total        electrons   268.07574413051475     
 total        electrons   268.07574413051475     
 total        electrons   268.07574413051475     
 total        electrons   268.07574413051475     
 total        electrons   268.07574413051475     
 total        electrons   268.07574413051475     
 total        electrons   268.07574413051475     
 total        electrons   268.07574413051475     
 total        electrons   268.07574413051475     
 total        electrons   268.07574413051475     
 total        electrons   268.07574413051475     
 total        electrons   268.07574413051475     
 total        electrons   268.07574413051475     
 total        electrons   268.07574413051475     
 total        electrons   268.07574413051475     
 total        electrons   268.07574413051475     
 total        electrons   268.07574413051475     
 total        electrons   268.07574413051475     
 total        electrons   268.07574413051475     
 total        electrons   268.07574413051475     
 total        electrons   268.07574413051475     
 total        electrons   268.07574413051475     
 total        electrons   268.07574413051475     
 total        electrons   268.07574413051475     
 total        electrons   268.07574413051475     
 total        electrons   268.07574413051475     
 total        electrons   268.07574413051475     
 total        electrons   268.07574413051475     
 total        electrons   268.07574413051475     
 total        electrons   268.07574413051475     
 total        electrons   268.07574413051475     
 total        electrons   268.07574413051475     
 total        electrons   268.07574413051475     
 total        electrons   268.07574413051475     
 total        electrons   268.07574413051475     
 total        electrons   268.07574413051475     
 total        electrons   268.07574413051475     
 total        electrons   268.07574413051475     
 total        electrons   268.07574413051475     
 total        electrons   268.07574413051475     
 total        electrons   268.07574413051475     
 total        electrons   268.07574413051475     
 total        electrons   268.07574413051475     
 total        electrons   268.07574413051475     
 total        electrons   268.07574413051475     
 total        electrons   268.07574413051475     
 total        electrons   268.07574413051475     
 total        electrons   268.07574413051475     
 total        electrons   268.07574413051475     
Note: The following floating-point exceptions are signalling: IEEE_OVERFLOW_FLAG
Note: The following floating-point exceptions are signalling: IEEE_OVERFLOW_FLAG
Note: The following floating-point exceptions are signalling: IEEE_OVERFLOW_FLAG
Note: The following floating-point exceptions are signalling: IEEE_OVERFLOW_FLAG
Note: The following floating-point exceptions are signalling: IEEE_OVERFLOW_FLAG
Note: The following floating-point exceptions are signalling: IEEE_OVERFLOW_FLAG
Note: The following floating-point exceptions are signalling: IEEE_OVERFLOW_FLAG
Note: The following floating-point exceptions are signalling: IEEE_OVERFLOW_FLAG
Note: The following floating-point exceptions are signalling: IEEE_OVERFLOW_FLAG
Note: The following floating-point exceptions are signalling: IEEE_INVALID_FLAG IEEE_OVERFLOW_FLAG
Note: The following floating-point exceptions are signalling: IEEE_OVERFLOW_FLAG
Note: The following floating-point exceptions are signalling: IEEE_OVERFLOW_FLAG
Note: The following floating-point exceptions are signalling: IEEE_OVERFLOW_FLAG
Note: The following floating-point exceptions are signalling: IEEE_OVERFLOW_FLAG
Note: The following floating-point exceptions are signalling: IEEE_OVERFLOW_FLAG
Note: The following floating-point exceptions are signalling: IEEE_OVERFLOW_FLAG
Note: The following floating-point exceptions are signalling: IEEE_OVERFLOW_FLAG
Note: The following floating-point exceptions are signalling: IEEE_OVERFLOW_FLAG
Note: The following floating-point exceptions are signalling: IEEE_OVERFLOW_FLAG
Note: The following floating-point exceptions are signalling: IEEE_OVERFLOW_FLAG
Note: The following floating-point exceptions are signalling: IEEE_OVERFLOW_FLAG
Note: The following floating-point exceptions are signalling: IEEE_OVERFLOW_FLAG
Note: The following floating-point exceptions are signalling: IEEE_OVERFLOW_FLAG
Note: The following floating-point exceptions are signalling: IEEE_OVERFLOW_FLAG
Note: The following floating-point exceptions are signalling: IEEE_OVERFLOW_FLAG
Note: The following floating-point exceptions are signalling: IEEE_OVERFLOW_FLAG
Note: The following floating-point exceptions are signalling: IEEE_OVERFLOW_FLAG
Note: The following floating-point exceptions are signalling: IEEE_OVERFLOW_FLAG
Note: The following floating-point exceptions are signalling: IEEE_OVERFLOW_FLAG
Note: The following floating-point exceptions are signalling: IEEE_OVERFLOW_FLAG
Note: The following floating-point exceptions are signalling: IEEE_OVERFLOW_FLAG
Note: The following floating-point exceptions are signalling: IEEE_OVERFLOW_FLAG
Note: The following floating-point exceptions are signalling: IEEE_OVERFLOW_FLAG
Note: The following floating-point exceptions are signalling: IEEE_OVERFLOW_FLAG
Note: The following floating-point exceptions are signalling: IEEE_OVERFLOW_FLAG
Note: The following floating-point exceptions are signalling: IEEE_OVERFLOW_FLAG
Note: The following floating-point exceptions are signalling: IEEE_OVERFLOW_FLAG
Note: The following floating-point exceptions are signalling: IEEE_OVERFLOW_FLAG
Note: The following floating-point exceptions are signalling: IEEE_OVERFLOW_FLAG
Note: The following floating-point exceptions are signalling: IEEE_OVERFLOW_FLAG
Note: The following floating-point exceptions are signalling: IEEE_OVERFLOW_FLAG
Note: The following floating-point exceptions are signalling: IEEE_OVERFLOW_FLAG
Note: The following floating-point exceptions are signalling: IEEE_OVERFLOW_FLAG
Note: The following floating-point exceptions are signalling: IEEE_OVERFLOW_FLAG
Note: The following floating-point exceptions are signalling: IEEE_OVERFLOW_FLAG
Note: The following floating-point exceptions are signalling: IEEE_OVERFLOW_FLAG
Note: The following floating-point exceptions are signalling: IEEE_OVERFLOW_FLAG
Note: The following floating-point exceptions are signalling: IEEE_OVERFLOW_FLAG
Note: The following floating-point exceptions are signalling: IEEE_OVERFLOW_FLAG
Note: The following floating-point exceptions are signalling: IEEE_OVERFLOW_FLAG
Note: The following floating-point exceptions are signalling: IEEE_OVERFLOW_FLAG
Note: The following floating-point exceptions are signalling: IEEE_OVERFLOW_FLAG
Note: The following floating-point exceptions are signalling: IEEE_OVERFLOW_FLAG
Note: The following floating-point exceptions are signalling: IEEE_OVERFLOW_FLAG
Note: The following floating-point exceptions are signalling: IEEE_OVERFLOW_FLAG
Note: The following floating-point exceptions are signalling: IEEE_OVERFLOW_FLAG
Note: The following floating-point exceptions are signalling: IEEE_OVERFLOW_FLAG
Note: The following floating-point exceptions are signalling: IEEE_OVERFLOW_FLAG
Note: The following floating-point exceptions are signalling: IEEE_OVERFLOW_FLAG
Note: The following floating-point exceptions are signalling: IEEE_OVERFLOW_FLAG
Note: The following floating-point exceptions are signalling: IEEE_OVERFLOW_FLAG
Note: The following floating-point exceptions are signalling: IEEE_OVERFLOW_FLAG
Note: The following floating-point exceptions are signalling: IEEE_OVERFLOW_FLAG
Note: The following floating-point exceptions are signalling: IEEE_OVERFLOW_FLAG
Note: The following floating-point exceptions are signalling: IEEE_OVERFLOW_FLAG
Note: The following floating-point exceptions are signalling: IEEE_OVERFLOW_FLAG
Note: The following floating-point exceptions are signalling: IEEE_OVERFLOW_FLAG
Note: The following floating-point exceptions are signalling: IEEE_OVERFLOW_FLAG
Note: The following floating-point exceptions are signalling: IEEE_OVERFLOW_FLAG
Note: The following floating-point exceptions are signalling: IEEE_INVALID_FLAG IEEE_OVERFLOW_FLAG
Note: The following floating-point exceptions are signalling: IEEE_OVERFLOW_FLAG
Note: The following floating-point exceptions are signalling: IEEE_OVERFLOW_FLAG
