   76   76   85    1
  0.2054817E+02  0.1053953E-08  0.6141200E-09  0.2412750E-08  0.5000000E-15
   1.0000000000000000E-004
  CAR 
 Name                                    
    286     23    184

  0.3742002E-15  0.3742002E-15  0.1262379E-14  0.2222222E-01
    1      -13.818693   1.000000
    2      -12.688738   1.000000
    3      -12.626993   1.000000
    4      -12.626141   1.000000
    5      -11.640921   1.000000
    6      -11.575054   1.000000
    7      -11.493527   1.000000
    8      -11.423388   1.000000
    9      -11.255471   1.000000
   10      -11.104875   1.000000
   11      -11.100967   1.000000
   12      -10.951757   1.000000
   13      -10.880860   1.000000
   14      -10.581225   1.000000
   15      -10.391451   1.000000
   16      -10.267503   1.000000
   17      -10.021783   1.000000
   18      -10.003397   1.000000
   19       -9.777183   1.000000
   20       -9.690922   1.000000
   21       -9.510463   1.000000
   22       -9.419564   1.000000
   23       -9.395264   1.000000
   24       -9.347488   1.000000
   25       -8.754153   1.000000
   26       -8.744989   1.000000
   27       -8.742547   1.000000
   28       -8.425032   1.000000
   29       -8.364072   1.000000
   30       -8.161080   1.000000
   31       -8.044236   1.000000
   32       -7.917604   1.000000
   33       -7.622788   1.000000
   34       -7.364181   1.000000
   35       -7.272651   1.000000
   36       -7.270945   1.000000
   37       -7.115465   1.000000
   38       -6.962561   1.000000
   39       -6.883105   1.000000
   40       -6.845422   1.000000
   41       -6.736254   1.000000
   42       -6.636674   1.000000
   43       -6.635376   1.000000
   44       -6.560540   1.000000
   45       -6.482228   1.000000
   46       -6.304620   1.000000
   47       -6.250995   1.000000
   48       -6.212809   1.000000
   49       -6.113458   1.000000
   50       -5.982133   1.000000
   51       -5.791212   1.000000
   52       -5.770399   1.000000
   53       -5.692273   1.000000
   54       -5.616594   1.000000
   55       -5.577514   1.000000
   56       -5.507141   1.000000
   57       -5.501619   1.000000
   58       -5.418104   1.000000
   59       -5.281759   1.000000
   60       -5.267608   1.000000
   61       -5.138034   1.000000
   62       -5.114269   1.000000
   63       -5.101249   1.000000
   64       -5.049332   1.000000
   65       -4.764810   1.000000
   66       -4.749412   1.000000
   67       -4.607006   1.000000
   68       -4.581682   1.000000
   69       -4.526420   1.000000
   70       -4.428951   1.000000
   71       -4.322852   1.000000
   72       -4.300274   1.000000
   73       -4.264386   1.000000
   74       -4.163047   1.000000
   75       -4.105876   1.000000
   76       -4.093016   1.000000
   77       -4.065327   1.000000
   78       -4.056961   1.000000
   79       -4.009500   1.000000
   80       -3.931982   1.000000
   81       -3.871980   1.000000
   82       -3.824527   1.000000
   83       -3.816219   1.000000
   84       -3.777512   1.000000
   85       -3.745171   1.000000
   86       -3.736973   1.000000
   87       -3.676446   1.000000
   88       -3.662799   1.000000
   89       -3.558441   1.000000
   90       -3.498482   1.000000
   91       -3.496928   1.000000
   92       -3.431929   1.000000
   93       -3.411193   1.000000
   94       -3.380215   1.000000
   95       -3.213062   1.000000
   96       -3.132355   1.000000
   97       -3.061689   1.000000
   98       -3.008191   1.000000
   99       -2.904711   1.000000
  100       -2.821422   1.000000
  101       -2.692281   1.000000
  102       -2.650345   1.000000
  103       -2.543169   1.000000
  104       -2.465403   1.000000
  105       -2.439049   1.000000
  106       -2.310351   1.000000
  107       -2.255847   1.000000
  108       -2.248982   1.000000
  109       -2.149313   1.000000
  110       -2.057263   1.000000
  111       -2.049448   1.000000
  112       -1.989912   1.000000
  113       -1.862434   1.000000
  114       -1.812982   1.000000
  115       -1.778524   1.000000
  116       -1.756711   1.000000
  117       -1.692553   1.000000
  118       -1.679919   1.000000
  119       -1.597593   1.000000
  120       -1.559618   1.000000
  121       -1.537533   1.000000
  122       -1.194282   1.000000
  123       -0.910838   1.000000
  124       -0.892841   1.000000
  125       -0.856801   1.000000
  126       -0.723209   1.000000
  127       -0.599417   1.000000
  128       -0.410452   1.000000
  129       -0.355704   1.000000
  130       -0.326382   1.000000
  131       -0.129452   1.000000
  132       -0.057006   1.000000
  133       -0.017383   1.000000
  134        0.072211   1.000000
  135        0.233148   1.000001
  136        0.303360   1.000061
  137        0.319073   1.000147
  138        0.401378   1.005827
  139        0.423757   1.011874
  140        0.432311   1.015018
  141        0.434850   1.016035
  142        0.531621   0.987924
  143        0.617779   0.441117
  144        0.648960   0.201673
  145        0.665429   0.105560
  146        0.726847  -0.034763
  147        0.726886  -0.034772
  148        0.762160  -0.027042
  149        0.901605  -0.000155
  150        0.911708  -0.000089
  151        1.092840  -0.000000
  152        1.150524  -0.000000
  153        1.192069  -0.000000
  154        1.200710  -0.000000
  155        1.308922  -0.000000
  156        1.344526  -0.000000
  157        1.397300  -0.000000
  158        1.437600  -0.000000
  159        1.442539  -0.000000
  160        1.451395  -0.000000
  161        1.508226  -0.000000
  162        1.513639  -0.000000
  163        1.559514  -0.000000
  164        1.628004  -0.000000
  165        1.707377  -0.000000
  166        1.713179  -0.000000
  167        1.760345  -0.000000
  168        1.831421  -0.000000
  169        1.838536  -0.000000
  170        1.848044  -0.000000
  171        1.871050  -0.000000
  172        1.890741  -0.000000
  173        1.895902  -0.000000
  174        1.928944  -0.000000
  175        1.965201  -0.000000
  176        1.995107  -0.000000
  177        2.002612  -0.000000
  178        2.041074  -0.000000
  179        2.107775  -0.000000
  180        2.114234  -0.000000
  181        2.156891  -0.000000
  182        2.315933  -0.000000
  183        2.323454  -0.000000
  184        2.342868  -0.000000

  0.2000000E+00  0.3742002E-15  0.1262379E-14  0.4444444E-01
    1      -13.770161   1.000000
    2      -13.064082   1.000000
    3      -12.581948   1.000000
    4      -12.179631   1.000000
    5      -11.919464   1.000000
    6      -11.630681   1.000000
    7      -11.475588   1.000000
    8      -11.182847   1.000000
    9      -11.102394   1.000000
   10      -11.078736   1.000000
   11      -11.063221   1.000000
   12      -10.980786   1.000000
   13      -10.813131   1.000000
   14      -10.648759   1.000000
   15      -10.494539   1.000000
   16      -10.440575   1.000000
   17      -10.435837   1.000000
   18       -9.772831   1.000000
   19       -9.737194   1.000000
   20       -9.714022   1.000000
   21       -9.481839   1.000000
   22       -9.397748   1.000000
   23       -9.323315   1.000000
   24       -9.307030   1.000000
   25       -8.985490   1.000000
   26       -8.884726   1.000000
   27       -8.373520   1.000000
   28       -8.255182   1.000000
   29       -8.174231   1.000000
   30       -8.143015   1.000000
   31       -8.092171   1.000000
   32       -7.978258   1.000000
   33       -7.509954   1.000000
   34       -7.478292   1.000000
   35       -7.375981   1.000000
   36       -7.325604   1.000000
   37       -7.225722   1.000000
   38       -7.060951   1.000000
   39       -6.988567   1.000000
   40       -6.845856   1.000000
   41       -6.829211   1.000000
   42       -6.730391   1.000000
   43       -6.605027   1.000000
   44       -6.582688   1.000000
   45       -6.536364   1.000000
   46       -6.233597   1.000000
   47       -6.102305   1.000000
   48       -6.080507   1.000000
   49       -5.965088   1.000000
   50       -5.925762   1.000000
   51       -5.882342   1.000000
   52       -5.780625   1.000000
   53       -5.778719   1.000000
   54       -5.623990   1.000000
   55       -5.482648   1.000000
   56       -5.476494   1.000000
   57       -5.454870   1.000000
   58       -5.371915   1.000000
   59       -5.318690   1.000000
   60       -5.255029   1.000000
   61       -5.175475   1.000000
   62       -5.111823   1.000000
   63       -5.022478   1.000000
   64       -4.944660   1.000000
   65       -4.933360   1.000000
   66       -4.704211   1.000000
   67       -4.680933   1.000000
   68       -4.640387   1.000000
   69       -4.567973   1.000000
   70       -4.438700   1.000000
   71       -4.317945   1.000000
   72       -4.304477   1.000000
   73       -4.201247   1.000000
   74       -4.195061   1.000000
   75       -4.080427   1.000000
   76       -4.068130   1.000000
   77       -4.047565   1.000000
   78       -4.043663   1.000000
   79       -3.962040   1.000000
   80       -3.882595   1.000000
   81       -3.842429   1.000000
   82       -3.835431   1.000000
   83       -3.830748   1.000000
   84       -3.811443   1.000000
   85       -3.794163   1.000000
   86       -3.791739   1.000000
   87       -3.618498   1.000000
   88       -3.587714   1.000000
   89       -3.536001   1.000000
   90       -3.483629   1.000000
   91       -3.474664   1.000000
   92       -3.468978   1.000000
   93       -3.424588   1.000000
   94       -3.404960   1.000000
   95       -3.381013   1.000000
   96       -3.116269   1.000000
   97       -3.080079   1.000000
   98       -3.066968   1.000000
   99       -2.919003   1.000000
  100       -2.826571   1.000000
  101       -2.765876   1.000000
  102       -2.665297   1.000000
  103       -2.644750   1.000000
  104       -2.593137   1.000000
  105       -2.250191   1.000000
  106       -2.240907   1.000000
  107       -2.189608   1.000000
  108       -2.150977   1.000000
  109       -2.121853   1.000000
  110       -2.111106   1.000000
  111       -1.977639   1.000000
  112       -1.909292   1.000000
  113       -1.870748   1.000000
  114       -1.850326   1.000000
  115       -1.755847   1.000000
  116       -1.679708   1.000000
  117       -1.679051   1.000000
  118       -1.619220   1.000000
  119       -1.603891   1.000000
  120       -1.484556   1.000000
  121       -1.416005   1.000000
  122       -1.177218   1.000000
  123       -1.006006   1.000000
  124       -0.924312   1.000000
  125       -0.868890   1.000000
  126       -0.857293   1.000000
  127       -0.684085   1.000000
  128       -0.448887   1.000000
  129       -0.428194   1.000000
  130       -0.411025   1.000000
  131       -0.321475   1.000000
  132       -0.192399   1.000000
  133       -0.070949   1.000000
  134       -0.006779   1.000000
  135        0.157806   1.000000
  136        0.213648   1.000000
  137        0.300586   1.000052
  138        0.388030   1.003580
  139        0.465323   1.029612
  140        0.518946   1.014482
  141        0.575595   0.778463
  142        0.625463   0.377400
  143        0.633422   0.313904
  144        0.661151   0.127996
  145        0.682300   0.035008
  146        0.747841  -0.032798
  147        0.762483  -0.026896
  148        0.799796  -0.011222
  149        0.854794  -0.001508
  150        0.920052  -0.000055
  151        1.126112  -0.000000
  152        1.208118  -0.000000
  153        1.213669  -0.000000
  154        1.323570  -0.000000
  155        1.358779  -0.000000
  156        1.372017  -0.000000
  157        1.382050  -0.000000
  158        1.409242  -0.000000
  159        1.488976  -0.000000
  160        1.547849  -0.000000
  161        1.556867  -0.000000
  162        1.583004  -0.000000
  163        1.603109  -0.000000
  164        1.626749  -0.000000
  165        1.707018  -0.000000
  166        1.724353  -0.000000
  167        1.749948  -0.000000
  168        1.815714  -0.000000
  169        1.843949  -0.000000
  170        1.897701  -0.000000
  171        1.907644  -0.000000
  172        1.922410  -0.000000
  173        1.932456  -0.000000
  174        1.949829  -0.000000
  175        1.969168  -0.000000
  176        2.006555  -0.000000
  177        2.014557  -0.000000
  178        2.039766  -0.000000
  179        2.096014  -0.000000
  180        2.114582  -0.000000
  181        2.140627  -0.000000
  182        2.250591  -0.000000
  183        2.269734  -0.000000
  184        2.336291  -0.000000

  0.4000000E+00  0.3742002E-15  0.1262379E-14  0.4444444E-01
    1      -13.625671   1.000000
    2      -13.388489   1.000000
    3      -12.447550   1.000000
    4      -12.226197   1.000000
    5      -11.639023   1.000000
    6      -11.599540   1.000000
    7      -11.546845   1.000000
    8      -11.099859   1.000000
    9      -11.095754   1.000000
   10      -11.056126   1.000000
   11      -10.947565   1.000000
   12      -10.944288   1.000000
   13      -10.799421   1.000000
   14      -10.773186   1.000000
   15      -10.691296   1.000000
   16      -10.552505   1.000000
   17      -10.535668   1.000000
   18       -9.979903   1.000000
   19       -9.760733   1.000000
   20       -9.742522   1.000000
   21       -9.377250   1.000000
   22       -9.348912   1.000000
   23       -9.342477   1.000000
   24       -9.292566   1.000000
   25       -9.007082   1.000000
   26       -8.731821   1.000000
   27       -8.277348   1.000000
   28       -8.178931   1.000000
   29       -7.937602   1.000000
   30       -7.883163   1.000000
   31       -7.868458   1.000000
   32       -7.845394   1.000000
   33       -7.787289   1.000000
   34       -7.616033   1.000000
   35       -7.539187   1.000000
   36       -7.475705   1.000000
   37       -7.400080   1.000000
   38       -7.300095   1.000000
   39       -7.258237   1.000000
   40       -7.008439   1.000000
   41       -6.729593   1.000000
   42       -6.703067   1.000000
   43       -6.510466   1.000000
   44       -6.469339   1.000000
   45       -6.418344   1.000000
   46       -6.254989   1.000000
   47       -6.095445   1.000000
   48       -6.013583   1.000000
   49       -5.923751   1.000000
   50       -5.919441   1.000000
   51       -5.865198   1.000000
   52       -5.855723   1.000000
   53       -5.725861   1.000000
   54       -5.586182   1.000000
   55       -5.477486   1.000000
   56       -5.471469   1.000000
   57       -5.433004   1.000000
   58       -5.326700   1.000000
   59       -5.279677   1.000000
   60       -5.240312   1.000000
   61       -5.185505   1.000000
   62       -5.104680   1.000000
   63       -5.034034   1.000000
   64       -4.838726   1.000000
   65       -4.800150   1.000000
   66       -4.713273   1.000000
   67       -4.683980   1.000000
   68       -4.603682   1.000000
   69       -4.553567   1.000000
   70       -4.514400   1.000000
   71       -4.460720   1.000000
   72       -4.400553   1.000000
   73       -4.259457   1.000000
   74       -4.125174   1.000000
   75       -4.091918   1.000000
   76       -4.065527   1.000000
   77       -4.044081   1.000000
   78       -4.034868   1.000000
   79       -3.984210   1.000000
   80       -3.982868   1.000000
   81       -3.832125   1.000000
   82       -3.803575   1.000000
   83       -3.753975   1.000000
   84       -3.739687   1.000000
   85       -3.727391   1.000000
   86       -3.703856   1.000000
   87       -3.673664   1.000000
   88       -3.643038   1.000000
   89       -3.555068   1.000000
   90       -3.540523   1.000000
   91       -3.510370   1.000000
   92       -3.453542   1.000000
   93       -3.355399   1.000000
   94       -3.323755   1.000000
   95       -3.273092   1.000000
   96       -3.228392   1.000000
   97       -3.154630   1.000000
   98       -3.103078   1.000000
   99       -3.088963   1.000000
  100       -3.014602   1.000000
  101       -2.899797   1.000000
  102       -2.788093   1.000000
  103       -2.653337   1.000000
  104       -2.377885   1.000000
  105       -2.252230   1.000000
  106       -2.250716   1.000000
  107       -2.213631   1.000000
  108       -2.180086   1.000000
  109       -1.980002   1.000000
  110       -1.914438   1.000000
  111       -1.898683   1.000000
  112       -1.879278   1.000000
  113       -1.748114   1.000000
  114       -1.726482   1.000000
  115       -1.682146   1.000000
  116       -1.653333   1.000000
  117       -1.626663   1.000000
  118       -1.617406   1.000000
  119       -1.362818   1.000000
  120       -1.360273   1.000000
  121       -1.277163   1.000000
  122       -1.132386   1.000000
  123       -1.114612   1.000000
  124       -1.084150   1.000000
  125       -1.021001   1.000000
  126       -0.897232   1.000000
  127       -0.813761   1.000000
  128       -0.757460   1.000000
  129       -0.751488   1.000000
  130       -0.529813   1.000000
  131       -0.441100   1.000000
  132       -0.403580   1.000000
  133       -0.105549   1.000000
  134       -0.058401   1.000000
  135        0.083844   1.000000
  136        0.307454   1.000077
  137        0.344526   1.000543
  138        0.375930   1.002216
  139        0.387401   1.003495
  140        0.480779   1.034667
  141        0.519156   1.014146
  142        0.553057   0.909639
  143        0.682081   0.035741
  144        0.748639  -0.032533
  145        0.761708  -0.027246
  146        0.795921  -0.012543
  147        0.825661  -0.004805
  148        0.944802  -0.000012
  149        0.987477  -0.000001
  150        0.999313  -0.000000
  151        1.022411  -0.000000
  152        1.260359  -0.000000
  153        1.278008  -0.000000
  154        1.350831  -0.000000
  155        1.423059  -0.000000
  156        1.456171  -0.000000
  157        1.496593  -0.000000
  158        1.517412  -0.000000
  159        1.531545  -0.000000
  160        1.567612  -0.000000
  161        1.582556  -0.000000
  162        1.633429  -0.000000
  163        1.679884  -0.000000
  164        1.694737  -0.000000
  165        1.751750  -0.000000
  166        1.771669  -0.000000
  167        1.781006  -0.000000
  168        1.789428  -0.000000
  169        1.827548  -0.000000
  170        1.886186  -0.000000
  171        1.914015  -0.000000
  172        1.935075  -0.000000
  173        1.951349  -0.000000
  174        1.981737  -0.000000
  175        2.016862  -0.000000
  176        2.074481  -0.000000
  177        2.081602  -0.000000
  178        2.085973  -0.000000
  179        2.095573  -0.000000
  180        2.155209  -0.000000
  181        2.156190  -0.000000
  182        2.218598  -0.000000
  183        2.246624  -0.000000
  184        2.291614  -0.000000

  0.3742002E-15  0.1111111E+00  0.1262379E-14  0.4444444E-01
    1      -13.771672   1.000000
    2      -12.649108   1.000000
    3      -12.592689   1.000000
    4      -12.586862   1.000000
    5      -11.746260   1.000000
    6      -11.546373   1.000000
    7      -11.464762   1.000000
    8      -11.462006   1.000000
    9      -11.294284   1.000000
   10      -11.153203   1.000000
   11      -11.074940   1.000000
   12      -10.956422   1.000000
   13      -10.891199   1.000000
   14      -10.553878   1.000000
   15      -10.412331   1.000000
   16      -10.240894   1.000000
   17      -10.004344   1.000000
   18       -9.965285   1.000000
   19       -9.800647   1.000000
   20       -9.664879   1.000000
   21       -9.540891   1.000000
   22       -9.442860   1.000000
   23       -9.374946   1.000000
   24       -9.358331   1.000000
   25       -8.776045   1.000000
   26       -8.743273   1.000000
   27       -8.721881   1.000000
   28       -8.424938   1.000000
   29       -8.363793   1.000000
   30       -8.174086   1.000000
   31       -7.923941   1.000000
   32       -7.880201   1.000000
   33       -7.720113   1.000000
   34       -7.400933   1.000000
   35       -7.346111   1.000000
   36       -7.260354   1.000000
   37       -7.224507   1.000000
   38       -6.936899   1.000000
   39       -6.886775   1.000000
   40       -6.827875   1.000000
   41       -6.762292   1.000000
   42       -6.576490   1.000000
   43       -6.562582   1.000000
   44       -6.561756   1.000000
   45       -6.484098   1.000000
   46       -6.294962   1.000000
   47       -6.260434   1.000000
   48       -6.211228   1.000000
   49       -6.064222   1.000000
   50       -6.028808   1.000000
   51       -5.825137   1.000000
   52       -5.765852   1.000000
   53       -5.652920   1.000000
   54       -5.615107   1.000000
   55       -5.534849   1.000000
   56       -5.513141   1.000000
   57       -5.481330   1.000000
   58       -5.365067   1.000000
   59       -5.245594   1.000000
   60       -5.222599   1.000000
   61       -5.128141   1.000000
   62       -5.083096   1.000000
   63       -5.073531   1.000000
   64       -5.035091   1.000000
   65       -4.764391   1.000000
   66       -4.677756   1.000000
   67       -4.660851   1.000000
   68       -4.567448   1.000000
   69       -4.461067   1.000000
   70       -4.455725   1.000000
   71       -4.334223   1.000000
   72       -4.317653   1.000000
   73       -4.260025   1.000000
   74       -4.164506   1.000000
   75       -4.136502   1.000000
   76       -4.131865   1.000000
   77       -4.102352   1.000000
   78       -4.055706   1.000000
   79       -4.048296   1.000000
   80       -3.955572   1.000000
   81       -3.943849   1.000000
   82       -3.938959   1.000000
   83       -3.923018   1.000000
   84       -3.813152   1.000000
   85       -3.799413   1.000000
   86       -3.693319   1.000000
   87       -3.666697   1.000000
   88       -3.608504   1.000000
   89       -3.607261   1.000000
   90       -3.529986   1.000000
   91       -3.521171   1.000000
   92       -3.416432   1.000000
   93       -3.395517   1.000000
   94       -3.357844   1.000000
   95       -3.356904   1.000000
   96       -3.169371   1.000000
   97       -2.986231   1.000000
   98       -2.877858   1.000000
   99       -2.796150   1.000000
  100       -2.756442   1.000000
  101       -2.702870   1.000000
  102       -2.648791   1.000000
  103       -2.517975   1.000000
  104       -2.466009   1.000000
  105       -2.442165   1.000000
  106       -2.368418   1.000000
  107       -2.337817   1.000000
  108       -2.206883   1.000000
  109       -2.127632   1.000000
  110       -2.122187   1.000000
  111       -2.087294   1.000000
  112       -1.995590   1.000000
  113       -1.956716   1.000000
  114       -1.868562   1.000000
  115       -1.835301   1.000000
  116       -1.746107   1.000000
  117       -1.725578   1.000000
  118       -1.609429   1.000000
  119       -1.554332   1.000000
  120       -1.527892   1.000000
  121       -1.418781   1.000000
  122       -1.144702   1.000000
  123       -0.984161   1.000000
  124       -0.939760   1.000000
  125       -0.795322   1.000000
  126       -0.726318   1.000000
  127       -0.627044   1.000000
  128       -0.488709   1.000000
  129       -0.477107   1.000000
  130       -0.238673   1.000000
  131       -0.183689   1.000000
  132       -0.179966   1.000000
  133        0.023523   1.000000
  134        0.077509   1.000000
  135        0.133970   1.000000
  136        0.229236   1.000000
  137        0.304763   1.000066
  138        0.332658   1.000301
  139        0.389585   1.003798
  140        0.412218   1.008367
  141        0.421483   1.011115
  142        0.474693   1.033095
  143        0.618764   0.432860
  144        0.653633   0.171778
  145        0.682815   0.033296
  146        0.774246  -0.021482
  147        0.827477  -0.004497
  148        0.851214  -0.001758
  149        0.978794  -0.000001
  150        1.063113  -0.000000
  151        1.095502  -0.000000
  152        1.187353  -0.000000
  153        1.200599  -0.000000
  154        1.260307  -0.000000
  155        1.269213  -0.000000
  156        1.323784  -0.000000
  157        1.406531  -0.000000
  158        1.423450  -0.000000
  159        1.484222  -0.000000
  160        1.488336  -0.000000
  161        1.541163  -0.000000
  162        1.558142  -0.000000
  163        1.581624  -0.000000
  164        1.610907  -0.000000
  165        1.633276  -0.000000
  166        1.703699  -0.000000
  167        1.727223  -0.000000
  168        1.796638  -0.000000
  169        1.840517  -0.000000
  170        1.862612  -0.000000
  171        1.872610  -0.000000
  172        1.886448  -0.000000
  173        1.892826  -0.000000
  174        1.950664  -0.000000
  175        1.960620  -0.000000
  176        1.992263  -0.000000
  177        1.994828  -0.000000
  178        2.018360  -0.000000
  179        2.044680  -0.000000
  180        2.105318  -0.000000
  181        2.135638  -0.000000
  182        2.206341  -0.000000
  183        2.319797  -0.000000
  184        2.337939  -0.000000

  0.2000000E+00  0.1111111E+00  0.1262379E-14  0.4444444E-01
    1      -13.723550   1.000000
    2      -13.023479   1.000000
    3      -12.542302   1.000000
    4      -12.147994   1.000000
    5      -11.886052   1.000000
    6      -11.732250   1.000000
    7      -11.530864   1.000000
    8      -11.204637   1.000000
    9      -11.150612   1.000000
   10      -11.053038   1.000000
   11      -11.038930   1.000000
   12      -10.998594   1.000000
   13      -10.813768   1.000000
   14      -10.628935   1.000000
   15      -10.473632   1.000000
   16      -10.443038   1.000000
   17      -10.418424   1.000000
   18       -9.797296   1.000000
   19       -9.728462   1.000000
   20       -9.690198   1.000000
   21       -9.475223   1.000000
   22       -9.414106   1.000000
   23       -9.314619   1.000000
   24       -9.313342   1.000000
   25       -8.988827   1.000000
   26       -8.882319   1.000000
   27       -8.382047   1.000000
   28       -8.254696   1.000000
   29       -8.182625   1.000000
   30       -8.147552   1.000000
   31       -8.102813   1.000000
   32       -7.821782   1.000000
   33       -7.596418   1.000000
   34       -7.558409   1.000000
   35       -7.367638   1.000000
   36       -7.320749   1.000000
   37       -7.296591   1.000000
   38       -6.979648   1.000000
   39       -6.973020   1.000000
   40       -6.870284   1.000000
   41       -6.861690   1.000000
   42       -6.713949   1.000000
   43       -6.575247   1.000000
   44       -6.570040   1.000000
   45       -6.495753   1.000000
   46       -6.420021   1.000000
   47       -6.190833   1.000000
   48       -6.010947   1.000000
   49       -5.955297   1.000000
   50       -5.852243   1.000000
   51       -5.817376   1.000000
   52       -5.766559   1.000000
   53       -5.710113   1.000000
   54       -5.627604   1.000000
   55       -5.528212   1.000000
   56       -5.504002   1.000000
   57       -5.451446   1.000000
   58       -5.327184   1.000000
   59       -5.258572   1.000000
   60       -5.177494   1.000000
   61       -5.140901   1.000000
   62       -5.082457   1.000000
   63       -5.010488   1.000000
   64       -4.948751   1.000000
   65       -4.943919   1.000000
   66       -4.738937   1.000000
   67       -4.607500   1.000000
   68       -4.602769   1.000000
   69       -4.499441   1.000000
   70       -4.444917   1.000000
   71       -4.314067   1.000000
   72       -4.302794   1.000000
   73       -4.237523   1.000000
   74       -4.213494   1.000000
   75       -4.106544   1.000000
   76       -4.101039   1.000000
   77       -4.041471   1.000000
   78       -4.041210   1.000000
   79       -4.026574   1.000000
   80       -4.004461   1.000000
   81       -3.946996   1.000000
   82       -3.922383   1.000000
   83       -3.886121   1.000000
   84       -3.844665   1.000000
   85       -3.783745   1.000000
   86       -3.731325   1.000000
   87       -3.678039   1.000000
   88       -3.597806   1.000000
   89       -3.577206   1.000000
   90       -3.544612   1.000000
   91       -3.531607   1.000000
   92       -3.431891   1.000000
   93       -3.394833   1.000000
   94       -3.353333   1.000000
   95       -3.325385   1.000000
   96       -3.156668   1.000000
   97       -3.027623   1.000000
   98       -2.952591   1.000000
   99       -2.890587   1.000000
  100       -2.862979   1.000000
  101       -2.731616   1.000000
  102       -2.679293   1.000000
  103       -2.634376   1.000000
  104       -2.579911   1.000000
  105       -2.296303   1.000000
  106       -2.287924   1.000000
  107       -2.240440   1.000000
  108       -2.158585   1.000000
  109       -2.139797   1.000000
  110       -2.130967   1.000000
  111       -1.960073   1.000000
  112       -1.896818   1.000000
  113       -1.894619   1.000000
  114       -1.834490   1.000000
  115       -1.774497   1.000000
  116       -1.767403   1.000000
  117       -1.679310   1.000000
  118       -1.660084   1.000000
  119       -1.612292   1.000000
  120       -1.442206   1.000000
  121       -1.360275   1.000000
  122       -1.144760   1.000000
  123       -1.046067   1.000000
  124       -0.941566   1.000000
  125       -0.918518   1.000000
  126       -0.822706   1.000000
  127       -0.692181   1.000000
  128       -0.660648   1.000000
  129       -0.397033   1.000000
  130       -0.358362   1.000000
  131       -0.231454   1.000000
  132       -0.090035   1.000000
  133        0.009539   1.000000
  134        0.072118   1.000000
  135        0.107749   1.000000
  136        0.134312   1.000000
  137        0.181882   1.000000
  138        0.252960   1.000003
  139        0.373415   1.001997
  140        0.458054   1.026411
  141        0.526113   1.001091
  142        0.539413   0.964630
  143        0.572558   0.798901
  144        0.700325  -0.010562
  145        0.704731  -0.017625
  146        0.780008  -0.018895
  147        0.864083  -0.000999
  148        0.933894  -0.000024
  149        0.936467  -0.000021
  150        1.055810  -0.000000
  151        1.062490  -0.000000
  152        1.222756  -0.000000
  153        1.295816  -0.000000
  154        1.317846  -0.000000
  155        1.329019  -0.000000
  156        1.412745  -0.000000
  157        1.426325  -0.000000