 running on   72 total cores
 distrk:  each k-point on   72 cores,    1 groups
 distr:  one band on    9 cores,    8 groups
 using from now: INCAR     
 vasp.5.4.4.18Apr17-6-g9f103f2a35 (build Dec  7 2020 12:43:57) complex           
 POSCAR found type information on POSCAR  Mo V  B  H 
 POSCAR found :  4 types and      76 ions
 scaLAPACK will be used
 LDA part: xc-table for Pade appr. of Perdew
 POSCAR, INCAR and KPOINTS ok, starting setup
 resort distribution
 resort distribution
 resort distribution
 resort distribution
 resort distribution
 resort distribution
 resort distribution
 resort distribution
 resort distribution
 resort distribution
 resort distribution
 resort distribution
 resort distribution
 resort distribution
 resort distribution
 resort distribution
 resort distribution
 resort distribution
 resort distribution
 resort distribution
 resort distribution
 resort distribution
 resort distribution
 resort distribution
 resort distribution
 resort distribution
 resort distribution
 resort distribution
 resort distribution
 resort distribution
 resort distribution
 resort distribution
 resort distribution
 resort distribution
 resort distribution
 resort distribution
 resort distribution
 resort distribution
 resort distribution
 resort distribution
 resort distribution
 resort distribution
 resort distribution
 resort distribution
 resort distribution
 resort distribution
 resort distribution
 resort distribution
 resort distribution
 resort distribution
 resort distribution
 resort distribution
 resort distribution
 resort distribution
 resort distribution
 resort distribution
 resort distribution
 resort distribution
 resort distribution
 resort distribution
 resort distribution
 resort distribution
 resort distribution
 resort distribution
 resort distribution
 resort distribution
 resort distribution
 resort distribution
 resort distribution
 resort distribution
 resort distribution
 resort distribution
 FFT: planning ...
 WAVECAR not read
 augmentation electrons   286.06515131928467     
 soft         electrons   0.0000000000000000     
 augmentation electrons   286.06515131928467     
 soft         electrons   0.0000000000000000     
 augmentation electrons   286.06515131928467     
 soft         electrons   0.0000000000000000     
 augmentation electrons   286.06515131928467     
 soft         electrons   0.0000000000000000     
 augmentation electrons   286.06515131928467     
 soft         electrons   0.0000000000000000     
 augmentation electrons   286.06515131928467     
 soft         electrons   0.0000000000000000     
 augmentation electrons   286.06515131928467     
 soft         electrons   0.0000000000000000     
 augmentation electrons   286.06515131928467     
 soft         electrons   0.0000000000000000     
 augmentation electrons   286.06515131928467     
 soft         electrons   0.0000000000000000     
 augmentation electrons   286.06515131928467     
 soft         electrons   0.0000000000000000     
 augmentation electrons   286.06515131928467     
 soft         electrons   0.0000000000000000     
 augmentation electrons   286.06515131928467     
 soft         electrons   0.0000000000000000     
 augmentation electrons   286.06515131928467     
 soft         electrons   0.0000000000000000     
 augmentation electrons   286.06515131928467     
 soft         electrons   0.0000000000000000     
 augmentation electrons   286.06515131928467     
 soft         electrons   0.0000000000000000     
 augmentation electrons   286.06515131928467     
 soft         electrons   0.0000000000000000     
 augmentation electrons   286.06515131928467     
 soft         electrons   0.0000000000000000     
 augmentation electrons   286.06515131928467     
 soft         electrons   0.0000000000000000     
 augmentation electrons   286.06515131928467     
 soft         electrons   0.0000000000000000     
 augmentation electrons   286.06515131928467     
 soft         electrons   0.0000000000000000     
 augmentation electrons   286.06515131928467     
 soft         electrons   0.0000000000000000     
 augmentation electrons   286.06515131928467     
 soft         electrons   0.0000000000000000     
 augmentation electrons   286.06515131928467     
 soft         electrons   0.0000000000000000     
 augmentation electrons   286.06515131928467     
 soft         electrons   0.0000000000000000     
 augmentation electrons   286.06515131928467     
 soft         electrons   0.0000000000000000     
 augmentation electrons   286.06515131928467     
 soft         electrons   0.0000000000000000     
 augmentation electrons   286.06515131928467     
 soft         electrons   0.0000000000000000     
 augmentation electrons   286.06515131928467     
 soft         electrons   0.0000000000000000     
 augmentation electrons   286.06515131928467     
 soft         electrons   0.0000000000000000     
 augmentation electrons   286.06515131928467     
 soft         electrons   0.0000000000000000     
 augmentation electrons   286.06515131928467     
 soft         electrons   0.0000000000000000     
 augmentation electrons   286.06515131928467     
 soft         electrons   0.0000000000000000     
 augmentation electrons   286.06515131928467     
 soft         electrons   0.0000000000000000     
 augmentation electrons   286.06515131928467     
 soft         electrons   0.0000000000000000     
 augmentation electrons   286.06515131928467     
 soft         electrons   0.0000000000000000     
 augmentation electrons   286.06515131928467     
 soft         electrons   0.0000000000000000     
 augmentation electrons   286.06515131928467     
 soft         electrons   0.0000000000000000     
 augmentation electrons   286.06515131928467     
 soft         electrons   0.0000000000000000     
 augmentation electrons   286.06515131928467     
 soft         electrons   0.0000000000000000     
 augmentation electrons   286.06515131928467     
 soft         electrons   0.0000000000000000     
 augmentation electrons   286.06515131928467     
 soft         electrons   0.0000000000000000     
 augmentation electrons   286.06515131928467     
 soft         electrons   0.0000000000000000     
 augmentation electrons   286.06515131928467     
 soft         electrons   0.0000000000000000     
 augmentation electrons   286.06515131928467     
 soft         electrons   0.0000000000000000     
 augmentation electrons   286.06515131928467     
 soft         electrons   0.0000000000000000     
 augmentation electrons   286.06515131928467     
 soft         electrons   0.0000000000000000     
 augmentation electrons   286.06515131928467     
 soft         electrons   0.0000000000000000     
 augmentation electrons   286.06515131928467     
 soft         electrons   0.0000000000000000     
 augmentation electrons   286.06515131928467     
 soft         electrons   0.0000000000000000     
 augmentation electrons   286.06515131928467     
 soft         electrons   0.0000000000000000     
 augmentation electrons   286.06515131928467     
 soft         electrons   0.0000000000000000     
 augmentation electrons   286.06515131928467     
 soft         electrons   0.0000000000000000     
 augmentation electrons   286.06515131928467     
 soft         electrons   0.0000000000000000     
 augmentation electrons   286.06515131928467     
 soft         electrons   0.0000000000000000     
 augmentation electrons   286.06515131928467     
 soft         electrons   0.0000000000000000     
 augmentation electrons   286.06515131928467     
 soft         electrons   0.0000000000000000     
 augmentation electrons   286.06515131928467     
 soft         electrons   0.0000000000000000     
 augmentation electrons   286.06515131928467     
 soft         electrons   0.0000000000000000     
 augmentation electrons   286.06515131928467     
 soft         electrons   0.0000000000000000     
 augmentation electrons   286.06515131928467     
 soft         electrons   0.0000000000000000     
 augmentation electrons   286.06515131928467     
 soft         electrons   0.0000000000000000     
 augmentation electrons   286.06515131928467     
 soft         electrons   0.0000000000000000     
 augmentation electrons   286.06515131928467     
 augmentation electrons   286.06515131928467     
 soft         electrons   0.0000000000000000     
 augmentation electrons   286.06515131928467     
 soft         electrons   0.0000000000000000     
 augmentation electrons   286.06515131928467     
 soft         electrons   0.0000000000000000     
 augmentation electrons   286.06515131928467     
 soft         electrons   0.0000000000000000     
 augmentation electrons   286.06515131928467     
 soft         electrons   0.0000000000000000     
 augmentation electrons   286.06515131928467     
 soft         electrons   0.0000000000000000     
 augmentation electrons   286.06515131928467     
 soft         electrons   0.0000000000000000     
 augmentation electrons   286.06515131928467     
 soft         electrons   0.0000000000000000     
 augmentation electrons   286.06515131928467     
 soft         electrons   0.0000000000000000     
 soft         electrons   0.0000000000000000     
 total        electrons   286.06515131928467     
 total        electrons   286.06515131928467     
 total        electrons   286.06515131928467     
 total        electrons   286.06515131928467     
 total        electrons   286.06515131928467     
 total        electrons   286.06515131928467     
 total        electrons   286.06515131928467     
 total        electrons   286.06515131928467     
 total        electrons   286.06515131928467     
 total        electrons   286.06515131928467     
 total        electrons   286.06515131928467     
 total        electrons   286.06515131928467     
 total        electrons   286.06515131928467     
 total        electrons   286.06515131928467     
 total        electrons   286.06515131928467     
 total        electrons   286.06515131928467     
 total        electrons   286.06515131928467     
 total        electrons   286.06515131928467     
 total        electrons   286.06515131928467     
 total        electrons   286.06515131928467     
 total        electrons   286.06515131928467     
 total        electrons   286.06515131928467     
 total        electrons   286.06515131928467     
 total        electrons   286.06515131928467     
 total        electrons   286.06515131928467     
 total        electrons   286.06515131928467     
 total        electrons   286.06515131928467     
 total        electrons   286.06515131928467     
 total        electrons   286.06515131928467     
 total        electrons   286.06515131928467     
 total        electrons   286.06515131928467     
 total        electrons   286.06515131928467     
 total        electrons   286.06515131928467     
 total        electrons   286.06515131928467     
 total        electrons   286.06515131928467     
 total        electrons   286.06515131928467     
 total        electrons   286.06515131928467     
 total        electrons   286.06515131928467     
 total        electrons   286.06515131928467     
 total        electrons   286.06515131928467     
 total        electrons   286.06515131928467     
 total        electrons   286.06515131928467     
 total        electrons   286.06515131928467     
 total        electrons   286.06515131928467     
 total        electrons   286.06515131928467     
 total        electrons   286.06515131928467     
 total        electrons   286.06515131928467     
 total        electrons   286.06515131928467     
 total        electrons   286.06515131928467     
 total        electrons   286.06515131928467     
 total        electrons   286.06515131928467     
 total        electrons   286.06515131928467     
 total        electrons   286.06515131928467     
 total        electrons   286.06515131928467     
 total        electrons   286.06515131928467     
 total        electrons   286.06515131928467     
 total        electrons   286.06515131928467     
 total        electrons   286.06515131928467     
 total        electrons   286.06515131928467     
 total        electrons   286.06515131928467     
 total        electrons   286.06515131928467     
 total        electrons   286.06515131928467     
 total        electrons   286.06515131928467     
 total        electrons   286.06515131928467     
 total        electrons   286.06515131928467     
 total        electrons   286.06515131928467     
 total        electrons   286.06515131928467     
 total        electrons   286.06515131928467     
 total        electrons   286.06515131928467     
 total        electrons   286.06515131928467     
 total        electrons   286.06515131928467     
 total        electrons   286.06515131928467     
 augmentation electrons   1284.9953543078657     
 soft         electrons   0.0000000000000000     
 total        electrons   1284.9953543078657     
 augmentation electrons   1284.9953543078657     
 soft         electrons   0.0000000000000000     
 total        electrons   1284.9953543078657     
 augmentation electrons   1284.9953543078657     
 soft         electrons   0.0000000000000000     
 total        electrons   1284.9953543078657     
 augmentation electrons   1284.9953543078657     
 soft         electrons   0.0000000000000000     
 total        electrons   1284.9953543078657     
 augmentation electrons   1284.9953543078657     
 soft         electrons   0.0000000000000000     
 total        electrons   1284.9953543078657     
 augmentation electrons   1284.9953543078657     
 soft         electrons   0.0000000000000000     
 total        electrons   1284.9953543078657     
 augmentation electrons   1284.9953543078657     
 soft         electrons   0.0000000000000000     
 total        electrons   1284.9953543078657     
 augmentation electrons   1284.9953543078657     
 soft         electrons   0.0000000000000000     
 total        electrons   1284.9953543078657     
 augmentation electrons   1284.9953543078657     
 soft         electrons   0.0000000000000000     
 total        electrons   1284.9953543078657     
 augmentation electrons   1284.9953543078657     
 soft         electrons   0.0000000000000000     
 total        electrons   1284.9953543078657     
 augmentation electrons   1284.9953543078657     
 soft         electrons   0.0000000000000000     
 total        electrons   1284.9953543078657     
 augmentation electrons   1284.9953543078657     
 soft         electrons   0.0000000000000000     
 total        electrons   1284.9953543078657     
 augmentation electrons   1284.9953543078657     
 soft         electrons   0.0000000000000000     
 total        electrons   1284.9953543078657     
 augmentation electrons   1284.9953543078657     
 soft         electrons   0.0000000000000000     
 total        electrons   1284.9953543078657     
 augmentation electrons   1284.9953543078657     
 soft         electrons   0.0000000000000000     
 total        electrons   1284.9953543078657     
 augmentation electrons   1284.9953543078657     
 soft         electrons   0.0000000000000000     
 total        electrons   1284.9953543078657     
 augmentation electrons   1284.9953543078657     
 soft         electrons   0.0000000000000000     
 total        electrons   1284.9953543078657     
 augmentation electrons   1284.9953543078657     
 soft         electrons   0.0000000000000000     
 total        electrons   1284.9953543078657     
 augmentation electrons   1284.9953543078657     
 soft         electrons   0.0000000000000000     
 total        electrons   1284.9953543078657     
 augmentation electrons   1284.9953543078657     
 soft         electrons   0.0000000000000000     
 total        electrons   1284.9953543078657     
 augmentation electrons   1284.9953543078657     
 soft         electrons   0.0000000000000000     
 total        electrons   1284.9953543078657     
 augmentation electrons   1284.9953543078657     
 soft         electrons   0.0000000000000000     
 total        electrons   1284.9953543078657     
 augmentation electrons   1284.9953543078657     
 soft         electrons   0.0000000000000000     
 total        electrons   1284.9953543078657     
 augmentation electrons   1284.9953543078657     
 soft         electrons   0.0000000000000000     
 total        electrons   1284.9953543078657     
 augmentation electrons   1284.9953543078657     
 soft         electrons   0.0000000000000000     
 total        electrons   1284.9953543078657     
 augmentation electrons   1284.9953543078657     
 soft         electrons   0.0000000000000000     
 total        electrons   1284.9953543078657     
 augmentation electrons   1284.9953543078657     
 soft         electrons   0.0000000000000000     
 total        electrons   1284.9953543078657     
 augmentation electrons   1284.9953543078657     
 soft         electrons   0.0000000000000000     
 total        electrons   1284.9953543078657     
 augmentation electrons   1284.9953543078657     
 soft         electrons   0.0000000000000000     
 total        electrons   1284.9953543078657     
 augmentation electrons   1284.9953543078657     
 soft         electrons   0.0000000000000000     
 total        electrons   1284.9953543078657     
 augmentation electrons   1284.9953543078657     
 soft         electrons   0.0000000000000000     
 total        electrons   1284.9953543078657     
 augmentation electrons   1284.9953543078657     
 soft         electrons   0.0000000000000000     
 total        electrons   1284.9953543078657     
 augmentation electrons   1284.9953543078657     
 soft         electrons   0.0000000000000000     
 augmentation electrons   1284.9953543078657     
 soft         electrons   0.0000000000000000     
 total        electrons   1284.9953543078657     
 augmentation electrons   1284.9953543078657     
 soft         electrons   0.0000000000000000     
 total        electrons   1284.9953543078657     
 augmentation electrons   1284.9953543078657     
 soft         electrons   0.0000000000000000     
 total        electrons   1284.9953543078657     
 augmentation electrons   1284.9953543078657     
 soft         electrons   0.0000000000000000     
 total        electrons   1284.9953543078657     
 augmentation electrons   1284.9953543078657     
 soft         electrons   0.0000000000000000     
 total        electrons   1284.9953543078657     
 augmentation electrons   1284.9953543078657     
 soft         electrons   0.0000000000000000     
 total        electrons   1284.9953543078657     
 augmentation electrons   1284.9953543078657     
 soft         electrons   0.0000000000000000     
 total        electrons   1284.9953543078657     
 augmentation electrons   1284.9953543078657     
 soft         electrons   0.0000000000000000     
 total        electrons   1284.9953543078657     
 augmentation electrons   1284.9953543078657     
 soft         electrons   0.0000000000000000     
 total        electrons   1284.9953543078657     
 augmentation electrons   1284.9953543078657     
 soft         electrons   0.0000000000000000     
 total        electrons   1284.9953543078657     
 augmentation electrons   1284.9953543078657     
 soft         electrons   0.0000000000000000     
 total        electrons   1284.9953543078657     
 augmentation electrons   1284.9953543078657     
 soft         electrons   0.0000000000000000     
 total        electrons   1284.9953543078657     
 augmentation electrons   1284.9953543078657     
 soft         electrons   0.0000000000000000     
 total        electrons   1284.9953543078657     
 augmentation electrons   1284.9953543078657     
 soft         electrons   0.0000000000000000     
 total        electrons   1284.9953543078657     
 augmentation electrons   1284.9953543078657     
 soft         electrons   0.0000000000000000     
 total        electrons   1284.9953543078657     
 augmentation electrons   1284.9953543078657     
 soft         electrons   0.0000000000000000     
 total        electrons   1284.9953543078657     
 augmentation electrons   1284.9953543078657     
 soft         electrons   0.0000000000000000     
 total        electrons   1284.9953543078657     
 augmentation electrons   1284.9953543078657     
 soft         electrons   0.0000000000000000     
 total        electrons   1284.9953543078657     
 augmentation electrons   1284.9953543078657     
 soft         electrons   0.0000000000000000     
 total        electrons   1284.9953543078657     
 augmentation electrons   1284.9953543078657     
 soft         electrons   0.0000000000000000     
 total        electrons   1284.9953543078657     
 augmentation electrons   1284.9953543078657     
 soft         electrons   0.0000000000000000     
 total        electrons   1284.9953543078657     
 augmentation electrons   1284.9953543078657     
 soft         electrons   0.0000000000000000     
 total        electrons   1284.9953543078657     
 augmentation electrons   1284.9953543078657     
 soft         electrons   0.0000000000000000     
 total        electrons   1284.9953543078657     
 augmentation electrons   1284.9953543078657     
 soft         electrons   0.0000000000000000     
 total        electrons   1284.9953543078657     
 augmentation electrons   1284.9953543078657     
 soft         electrons   0.0000000000000000     
 total        electrons   1284.9953543078657     
 augmentation electrons   1284.9953543078657     
 soft         electrons   0.0000000000000000     
 total        electrons   1284.9953543078657     
 augmentation electrons   1284.9953543078657     
 soft         electrons   0.0000000000000000     
 total        electrons   1284.9953543078657     
 augmentation electrons   1284.9953543078657     
 soft         electrons   0.0000000000000000     
 total        electrons   1284.9953543078657     
 augmentation electrons   1284.9953543078657     
 soft         electrons   0.0000000000000000     
 total        electrons   1284.9953543078657     
 augmentation electrons   1284.9953543078657     
 soft         electrons   0.0000000000000000     
 total        electrons   1284.9953543078657     
 augmentation electrons   1284.9953543078657     
 soft         electrons   0.0000000000000000     
 total        electrons   1284.9953543078657     
 augmentation electrons   1284.9953543078657     
 soft         electrons   0.0000000000000000     
 total        electrons   1284.9953543078657     
 augmentation electrons   1284.9953543078657     
 soft         electrons   0.0000000000000000     
 total        electrons   1284.9953543078657     
 augmentation electrons   1284.9953543078657     
 soft         electrons   0.0000000000000000     
 total        electrons   1284.9953543078657     
 augmentation electrons   1284.9953543078657     
 soft         electrons   0.0000000000000000     
 total        electrons   1284.9953543078657     
 augmentation electrons   1284.9953543078657     
 soft         electrons   0.0000000000000000     
 augmentation electrons   1284.9953543078657     
 soft         electrons   0.0000000000000000     
 total        electrons   1284.9953543078657     
 augmentation electrons   1284.9953543078657     
 soft         electrons   0.0000000000000000     
 total        electrons   1284.9953543078657     
 augmentation electrons   1284.9953543078657     
 soft         electrons   0.0000000000000000     
 total        electrons   1284.9953543078657     
 total        electrons   1284.9953543078657     
 total        electrons   1284.9953543078657     
 entering main loop
       N       E                     dE             d eps       ncg     rms          rms(c)
DAV:   1     0.248733223158E+04    0.24873E+04   -0.10447E+05  8464   0.128E+03
DAV:   2    -0.215126787774E+03   -0.27025E+04   -0.25095E+04  9680   0.317E+02
DAV:   3    -0.662603486510E+03   -0.44748E+03   -0.42470E+03 11984   0.148E+02
DAV:   4    -0.700881165104E+03   -0.38278E+02   -0.36490E+02 13712   0.470E+01
DAV:   5    -0.703427220243E+03   -0.25461E+01   -0.24463E+01 14408   0.113E+01    0.147E+02
RMM:   6    -0.653227690954E+03    0.50200E+02   -0.11424E+03 11674   0.887E+01    0.734E+01
RMM:   7    -0.765306516069E+03   -0.11208E+03   -0.40371E+02 11630   0.478E+01    0.556E+01
RMM:   8    -0.652137293507E+03    0.11317E+03   -0.18837E+02 11398   0.259E+01    0.418E+01
RMM:   9    -0.613461431612E+03    0.38676E+02   -0.43981E+01 10690   0.173E+01    0.278E+01
RMM:  10    -0.601818990711E+03    0.11642E+02   -0.44026E+01  9956   0.168E+01    0.210E+01
RMM:  11    -0.599157411694E+03    0.26616E+01   -0.75117E+00  9243   0.892E+00    0.168E+01
RMM:  12    -0.599243491678E+03   -0.86080E-01   -0.37418E+00 11502   0.249E+00    0.149E+01
RMM:  13    -0.599002867169E+03    0.24062E+00   -0.80723E-01 11483   0.146E+00    0.131E+01
RMM:  14    -0.599355712998E+03   -0.35285E+00   -0.68205E+00  8587   0.844E+00    0.101E+01
RMM:  15    -0.598109053890E+03    0.12467E+01   -0.19976E+00  8603   0.490E+00    0.426E+00
RMM:  16    -0.597982264049E+03    0.12679E+00   -0.86878E-01 11170   0.177E+00    0.279E+00
RMM:  17    -0.597941612999E+03    0.40651E-01   -0.32510E-01 10187   0.141E+00    0.229E+00
RMM:  18    -0.597923315990E+03    0.18297E-01   -0.27904E-01 11254   0.107E+00    0.164E+00
RMM:  19    -0.597933094799E+03   -0.97788E-02   -0.19468E-01  9443   0.113E+00    0.181E+00
RMM:  20    -0.597903694053E+03    0.29401E-01   -0.90129E-02 10260   0.759E-01    0.728E-01
RMM:  21    -0.597900360158E+03    0.33339E-02   -0.37640E-02  8864   0.545E-01    0.576E-01
RMM:  22    -0.597900899913E+03   -0.53976E-03   -0.18280E-02  8656   0.419E-01    0.496E-01
RMM:  23    -0.597899747708E+03    0.11522E-02   -0.10156E-02 10507   0.197E-01    0.208E-01
RMM:  24    -0.597900687834E+03   -0.94013E-03   -0.55712E-03  9407   0.187E-01    0.195E-01
RMM:  25    -0.597901244910E+03   -0.55708E-03   -0.28158E-03 11466   0.823E-02    0.187E-01
RMM:  26    -0.597901854399E+03   -0.60949E-03   -0.82402E-04  8603   0.868E-02    0.661E-02
RMM:  27    -0.597903526312E+03   -0.16719E-02   -0.87304E-04  9180   0.765E-02    0.175E-01
RMM:  28    -0.597903525715E+03    0.59623E-06   -0.59139E-04  8576   0.789E-02    0.357E-02
RMM:  29    -0.597904018541E+03   -0.49283E-03   -0.81320E-04 11281   0.401E-02    0.725E-02
RMM:  30    -0.597904067250E+03   -0.48710E-04   -0.15465E-04  8509   0.396E-02    0.208E-02
RMM:  31    -0.597904215828E+03   -0.14858E-03   -0.13997E-04 10215   0.138E-02    0.119E-02
RMM:  32    -0.597904234891E+03   -0.19063E-04   -0.37224E-05  8157   0.141E-02    0.232E-02
RMM:  33    -0.597904335612E+03   -0.10072E-03   -0.14423E-05  7092   0.908E-03    0.120E-02
RMM:  34    -0.597904515069E+03   -0.17946E-03   -0.67451E-05  8988   0.236E-02    0.376E-02
RMM:  35    -0.597904651320E+03   -0.13625E-03   -0.21103E-05  7375   0.131E-02    0.135E-02
RMM:  36    -0.597904779382E+03   -0.12806E-03   -0.15532E-05  7017   0.573E-03    0.698E-03
RMM:  37    -0.597904854875E+03   -0.75493E-04   -0.80619E-06  6409   0.407E-03    0.474E-03
RMM:  38    -0.597904882830E+03   -0.27954E-04   -0.29902E-06  5735   0.373E-03    0.288E-03
RMM:  39    -0.597904898042E+03   -0.15212E-04   -0.16150E-06  5454   0.254E-03    0.242E-03
RMM:  40    -0.597904910333E+03   -0.12291E-04   -0.11152E-06  5141   0.242E-03    0.167E-03
RMM:  41    -0.597904916906E+03   -0.65737E-05   -0.97591E-07  5230   0.248E-03    0.230E-03
RMM:  42    -0.597904919355E+03   -0.24490E-05   -0.59736E-07  5009   0.252E-03    0.107E-03
RMM:  43    -0.597904920833E+03   -0.14776E-05   -0.34536E-07  4003   0.135E-03    0.762E-04
RMM:  44    -0.597904921275E+03   -0.44250E-06   -0.20512E-07  3872   0.126E-03
   1 F= -.59790492E+03 E0= -.59790723E+03  d E =-.597905E+03
 curvature:   0.00 expect dE= 0.000E+00 dE for cont linesearch  0.000E+00
 trial: gam= 0.00000 g(F)=  0.293E-02 g(S)=  0.000E+00 ort = 0.000E+00 (trialstep = 0.100E+01)
 search vector abs. value=  0.293E-02
 bond charge predicted
       N       E                     dE             d eps       ncg     rms          rms(c)
DAV:   1    -0.597907323421E+03   -0.24026E-02   -0.47471E-02  9632   0.440E-01    0.596E-02
RMM:   2    -0.597907467188E+03   -0.14377E-03   -0.10391E-03  9340   0.109E-01    0.876E-02
RMM:   3    -0.597907428801E+03    0.38387E-04   -0.25027E-04 10200   0.483E-02    0.580E-02
RMM:   4    -0.597907416208E+03    0.12593E-04   -0.11439E-04 10986   0.210E-02    0.412E-02
RMM:   5    -0.597907401442E+03    0.14767E-04   -0.93588E-05  9231   0.297E-02    0.317E-02
RMM:   6    -0.597907402894E+03   -0.14528E-05   -0.48337E-05  9118   0.204E-02    0.287E-02
RMM:   7    -0.597907392001E+03    0.10893E-04   -0.16156E-05  7810   0.146E-02    0.816E-03
RMM:   8    -0.597907391316E+03    0.68447E-06   -0.47346E-06  6132   0.482E-03
   2 F= -.59790739E+03 E0= -.59790969E+03  d E =-.247004E-02
 trial-energy change:   -0.002470  1 .order   -0.002466   -0.002931   -0.002001
 step:   3.1506(harm=  3.1506)  dis= 0.00610  next Energy=  -597.909538 (dE=-0.462E-02)
 bond charge predicted
       N       E                     dE             d eps       ncg     rms          rms(c)
DAV:   1    -0.597909238523E+03   -0.18465E-02   -0.22037E-01  9184   0.949E-01    0.129E-01
RMM:   2    -0.597909937559E+03   -0.69904E-03   -0.48370E-03  9354   0.236E-01    0.193E-01
RMM:   3    -0.597909718328E+03    0.21923E-03   -0.11321E-03 10243   0.104E-01    0.123E-01
RMM:   4    -0.597909651298E+03    0.67030E-04   -0.51298E-04 11083   0.450E-02    0.873E-02
RMM:   5    -0.597909601160E+03    0.50138E-04   -0.43520E-04  9136   0.651E-02    0.727E-02
RMM:   6    -0.597909595173E+03    0.59876E-05   -0.21401E-04  9385   0.440E-02    0.601E-02
RMM:   7    -0.597909550175E+03    0.44998E-04   -0.79651E-05  8668   0.323E-02    0.243E-02
RMM:   8    -0.597909544909E+03    0.52657E-05   -0.23636E-05  8545   0.131E-02    0.155E-02
RMM:   9    -0.597909543992E+03    0.91678E-06   -0.12542E-05  6750   0.906E-03    0.104E-02
RMM:  10    -0.597909543234E+03    0.75800E-06   -0.51704E-06  6100   0.651E-03
   3 F= -.59790954E+03 E0= -.59791185E+03  d E =-.462196E-02
 curvature:  -1.58 expect dE=-0.503E-02 dE for cont linesearch -0.124E-06
 trial: gam= 1.09416 g(F)=  0.319E-02 g(S)=  0.000E+00 ort =-0.152E-04 (trialstep = 0.629E+00)
 search vector abs. value=  0.667E-02
 bond charge predicted
       N       E                     dE             d eps       ncg     rms          rms(c)
DAV:   1    -0.597911377424E+03   -0.18334E-02   -0.42152E-02  8968   0.417E-01    0.577E-02
RMM:   2    -0.597911516072E+03   -0.13865E-03   -0.10144E-03  9032   0.118E-01    0.100E-01
RMM:   3    -0.597911454842E+03    0.61230E-04   -0.23557E-04 10113   0.509E-02    0.516E-02
RMM:   4    -0.597911467222E+03   -0.12380E-04   -0.13381E-04 11120   0.210E-02    0.472E-02
RMM:   5    -0.597911429089E+03    0.38133E-04   -0.82766E-05  9789   0.249E-02    0.270E-02
RMM:   6    -0.597911443095E+03   -0.14007E-04   -0.73460E-05  9064   0.260E-02    0.392E-02
RMM:   7    -0.597911422988E+03    0.20107E-04   -0.22486E-05  8162   0.178E-02    0.755E-03
RMM:   8    -0.597911422672E+03    0.31677E-06   -0.69251E-06  6446   0.562E-03
   4 F= -.59791142E+03 E0= -.59791372E+03  d E =-.187944E-02
 ZBRENT: can't locate minimum, use default step
 trial-energy change:   -0.001879  1 .order   -0.001876   -0.001996   -0.001756
 step:   2.5147(harm=  5.2274)  dis= 0.01211  next Energy=  -597.917842 (dE=-0.830E-02)
 bond charge predicted
       N       E                     dE             d eps       ncg     rms          rms(c)
DAV:   1    -0.597915184269E+03   -0.37613E-02   -0.37907E-01  8744   0.125E+00    0.172E-01
RMM:   2    -0.597916526117E+03   -0.13418E-02   -0.90137E-03  9069   0.350E-01    0.310E-01
RMM:   3    -0.597915830768E+03    0.69535E-03   -0.20328E-03 10196   0.148E-01    0.147E-01
RMM:   4    -0.597915945871E+03   -0.11510E-03   -0.11685E-03 11252   0.641E-02    0.138E-01
RMM:   5    -0.597915642630E+03    0.30324E-03   -0.77725E-04  9743   0.782E-02    0.847E-02
RMM:   6    -0.597915748871E+03   -0.10624E-03   -0.63976E-04  9191   0.757E-02    0.113E-01
RMM:   7    -0.597915575493E+03    0.17338E-03   -0.19954E-04  8701   0.524E-02    0.227E-02
RMM:   8    -0.597915572731E+03    0.27620E-05   -0.64441E-05 10168   0.149E-02    0.168E-02
RMM:   9    -0.597915571182E+03    0.15482E-05   -0.15722E-05  7014   0.109E-02    0.120E-02
RMM:  10    -0.597915572048E+03   -0.86526E-06   -0.11008E-05  6887   0.854E-03    0.118E-02
RMM:  11    -0.597915571409E+03    0.63856E-06   -0.47871E-06  6030   0.707E-03
   5 F= -.59791557E+03 E0= -.59791785E+03  d E =-.602818E-02
 curvature:  -3.58 expect dE=-0.291E-02 dE for cont linesearch -0.135E-02
 ZBRENT: increasing intervall
 opt :   6.2867  next Energy=  -597.916986 (dE=-0.744E-02)
 bond charge predicted
       N       E                     dE             d eps       ncg     rms          rms(c)
DAV:   1    -0.597915249721E+03    0.32233E-03   -0.15149E+00  8552   0.250E+00    0.348E-01
RMM:   2    -0.597921225811E+03   -0.59761E-02   -0.38014E-02  9053   0.714E-01    0.665E-01
RMM:   3    -0.597917723365E+03    0.35024E-02   -0.84235E-03 10140   0.306E-01    0.289E-01
RMM:   4    -0.597918255450E+03   -0.53208E-03   -0.49246E-03 11183   0.136E-01    0.285E-01
RMM:   5    -0.597916976473E+03    0.12790E-02   -0.29917E-03  9732   0.154E-01    0.171E-01
RMM:   6    -0.597917451901E+03   -0.47543E-03   -0.27208E-03  9121   0.159E-01    0.235E-01
RMM:   7    -0.597916702057E+03    0.74984E-03   -0.82154E-04  8704   0.107E-01    0.462E-02
RMM:   8    -0.597916697550E+03    0.45069E-05   -0.26903E-04 10606   0.337E-02    0.405E-02
RMM:   9    -0.597916687185E+03    0.10365E-04   -0.70705E-05  9175   0.226E-02    0.239E-02
RMM:  10    -0.597916691795E+03   -0.46100E-05   -0.51660E-05  9341   0.169E-02    0.233E-02
RMM:  11    -0.597916689291E+03    0.25036E-05   -0.22938E-05  8167   0.113E-02    0.972E-03
RMM:  12    -0.597916691933E+03   -0.26424E-05   -0.93475E-06  6715   0.546E-03    0.523E-03
RMM:  13    -0.597916695044E+03   -0.31107E-05   -0.23202E-06  5654   0.412E-03    0.208E-03
RMM:  14    -0.597916700276E+03   -0.52316E-05   -0.11829E-06  5305   0.272E-03    0.232E-03
RMM:  15    -0.597916701957E+03   -0.16810E-05   -0.64860E-07  5107   0.313E-03    0.185E-03
RMM:  16    -0.597916704213E+03   -0.22559E-05   -0.40296E-07  5077   0.193E-03    0.936E-04
RMM:  17    -0.597916707692E+03   -0.34797E-05   -0.50191E-07  4975   0.161E-03    0.114E-03
RMM:  18    -0.597916709511E+03   -0.18185E-05   -0.33366E-07  4653   0.157E-03    0.877E-04
RMM:  19    -0.597916711852E+03   -0.23413E-05   -0.36688E-07  4380   0.132E-03    0.764E-04
RMM:  20    -0.597916714053E+03   -0.22011E-05   -0.40161E-07  4237   0.134E-03    0.404E-04
RMM:  21    -0.597916715780E+03   -0.17265E-05   -0.37912E-07  3940   0.114E-03    0.343E-04
RMM:  22    -0.597916716994E+03   -0.12144E-05   -0.29184E-07  3841   0.118E-03    0.330E-04
RMM:  23    -0.597916717604E+03   -0.60950E-06   -0.21477E-07  3429   0.101E-03
   6 F= -.59791672E+03 E0= -.59791896E+03  d E =-.717437E-02
 curvature:  -3.76 expect dE=-0.208E-02 dE for cont linesearch -0.620E-03
 ZBRENT: bracketing found
 ZBRENT: interpolating
 opt :   4.7844  next Energy=  -597.917505 (dE=-0.796E-02)
 bond charge predicted
       N       E                     dE             d eps       ncg     rms          rms(c)
DAV:   1    -0.597917245530E+03   -0.52854E-03   -0.24054E-01  8656   0.997E-01    0.139E-01
RMM:   2    -0.597918234185E+03   -0.98865E-03   -0.61666E-03  9109   0.284E-01    0.273E-01
RMM:   3    -0.597917620215E+03    0.61397E-03   -0.13301E-03 10098   0.122E-01    0.114E-01
RMM:   4    -0.597917716647E+03   -0.96432E-04   -0.82165E-04 11154   0.557E-02    0.115E-01
RMM:   5    -0.597917507954E+03    0.20869E-03   -0.47805E-04  9729   0.616E-02    0.665E-02
RMM:   6    -0.597917586999E+03   -0.79045E-04   -0.43361E-04  9137   0.631E-02    0.941E-02
RMM:   7    -0.597917466846E+03    0.12015E-03   -0.13012E-04  8710   0.425E-02    0.176E-02
RMM:   8    -0.597917465259E+03    0.15868E-05   -0.41178E-05  9320   0.124E-02    0.132E-02
RMM:   9    -0.597917463742E+03    0.15172E-05   -0.10045E-05  6614   0.865E-03    0.816E-03
RMM:  10    -0.597917464242E+03   -0.50050E-06   -0.67376E-06  6389   0.695E-03
   7 F= -.59791746E+03 E0= -.59791972E+03  d E =-.792101E-02
 curvature:  -4.78 expect dE=-0.709E-03 dE for cont linesearch -0.226E-05
 ZBRENT: interpolating
 opt :   4.8609  next Energy=  -597.917466 (dE=-0.792E-02)
 bond charge predicted
       N       E                     dE             d eps       ncg     rms          rms(c)
DAV:   1    -0.597917464237E+03   -0.49534E-06   -0.61793E-04 10152   0.535E-02    0.751E-03
RMM:   2    -0.597917467895E+03   -0.36576E-05   -0.20667E-05  8593   0.149E-02    0.163E-02
RMM:   3    -0.597917465162E+03    0.27330E-05   -0.45251E-06  6157   0.831E-03    0.643E-03
RMM:   4    -0.597917465494E+03   -0.33256E-06   -0.22875E-06  5456   0.485E-03    0.838E-03
RMM:   5    -0.597917465239E+03    0.25558E-06   -0.95541E-07  4900   0.440E-03
   8 F= -.59791747E+03 E0= -.59791972E+03  d E =-.792200E-02
 curvature:  -4.53 expect dE=-0.688E-03 dE for cont linesearch -0.636E-07
 trial: gam= 0.04433 g(F)=  0.152E-03 g(S)=  0.000E+00 ort =-0.967E-05 (trialstep = 0.148E+01)
 search vector abs. value=  0.164E-03
 bond charge predicted
       N       E                     dE             d eps       ncg     rms          rms(c)
DAV:   1    -0.597917675069E+03   -0.20957E-03   -0.56416E-03  8784   0.154E-01    0.224E-02
RMM:   2    -0.597917689146E+03   -0.14077E-04   -0.13744E-04  9376   0.425E-02    0.235E-02
RMM:   3    -0.597917688871E+03    0.27492E-06   -0.39843E-05  9440   0.192E-02    0.184E-02
RMM:   4    -0.597917693826E+03   -0.49554E-05   -0.15784E-05  7556   0.122E-02    0.256E-02
RMM:   5    -0.597917687592E+03    0.62336E-05   -0.10044E-05  6852   0.116E-02    0.150E-02
RMM:   6    -0.597917688691E+03   -0.10990E-05   -0.76979E-06  6350   0.839E-03    0.151E-02
RMM:   7    -0.597917685956E+03    0.27358E-05   -0.32845E-06  5776   0.747E-03    0.532E-03
RMM:   8    -0.597917685598E+03    0.35789E-06   -0.93099E-07  5126   0.381E-03
   9 F= -.59791769E+03 E0= -.59791996E+03  d E =-.220359E-03
 ZBRENT: can't locate minimum, use default step
 trial-energy change:   -0.000220  1 .order   -0.000220   -0.000223   -0.000217
 step:   5.9004(harm= 48.7897)  dis= 0.00863  next Energy=  -597.921157 (dE=-0.369E-02)
 bond charge predicted
       N       E                     dE             d eps       ncg     rms          rms(c)
DAV:   1    -0.597918218539E+03   -0.53258E-03   -0.50825E-02  8608   0.462E-01    0.661E-02
RMM:   2    -0.597918325347E+03   -0.10681E-03   -0.11020E-03  9392   0.120E-01    0.709E-02
RMM:   3    -0.597918398132E+03   -0.72785E-04   -0.35360E-04 10277   0.574E-02    0.823E-02
RMM:   4    -0.597918369546E+03    0.28586E-04   -0.16385E-04 11059   0.241E-02    0.523E-02
RMM:   5    -0.597918309657E+03    0.59889E-04   -0.11104E-04  9762   0.287E-02    0.221E-02
RMM:   6    -0.597918316925E+03   -0.72677E-05   -0.59665E-05  9995   0.178E-02    0.261E-02
RMM:   7    -0.597918307343E+03    0.95816E-05   -0.18670E-05  7548   0.142E-02    0.117E-02
RMM:   8    -0.597918306133E+03    0.12099E-05   -0.70191E-06  6624   0.658E-03    0.560E-03
RMM:   9    -0.597918306166E+03   -0.33004E-07   -0.23327E-06  5581   0.469E-03
  10 F= -.59791831E+03 E0= -.59792061E+03  d E =-.840928E-03
 curvature:  -4.71 expect dE=-0.610E-03 dE for cont linesearch -0.505E-03
 ZBRENT: increasing intervall
 opt :  14.7511  next Energy=  -597.919352 (dE=-0.189E-02)
 bond charge predicted
       N       E                     dE             d eps       ncg     rms          rms(c)
DAV:   1    -0.597919025632E+03   -0.71950E-03   -0.20346E-01  8464   0.923E-01    0.131E-01
RMM:   2    -0.597919469342E+03   -0.44371E-03   -0.43971E-03  9489   0.235E-01    0.146E-01
RMM:   3    -0.597919697217E+03   -0.22788E-03   -0.13624E-03 10329   0.112E-01    0.156E-01
RMM:   4    -0.597919627640E+03    0.69577E-04   -0.69189E-04 11037   0.515E-02    0.111E-01
RMM:   5    -0.597919377037E+03    0.25060E-03   -0.44869E-04  9537   0.616E-02    0.437E-02
RMM:   6    -0.597919415494E+03   -0.38457E-04   -0.27280E-04 10413   0.371E-02    0.582E-02
RMM:   7    -0.597919372032E+03    0.43461E-04   -0.88234E-05  8676   0.307E-02    0.261E-02
RMM:   8    -0.597919366031E+03    0.60011E-05   -0.35268E-05  9029   0.134E-02    0.133E-02
RMM:   9    -0.597919365392E+03    0.63871E-06   -0.12813E-05  6792   0.791E-03    0.834E-03
RMM:  10    -0.597919365160E+03    0.23265E-06   -0.41552E-06  5968   0.601E-03
  11 F= -.59791937E+03 E0= -.59792174E+03  d E =-.189992E-02
 curvature:  -9.78 expect dE=-0.148E-02 dE for cont linesearch -0.640E-03
 ZBRENT: increasing intervall
 opt :  32.4524  next Energy=  -597.920689 (dE=-0.322E-02)
 bond charge predicted
       N       E                     dE             d eps       ncg     rms          rms(c)
DAV:   1    -0.597919350101E+03    0.15291E-04   -0.81299E-01  8464   0.184E+00    0.260E-01
RMM:   2    -0.597921223871E+03   -0.18738E-02   -0.17868E-02  9502   0.473E-01    0.306E-01
RMM:   3    -0.597921858318E+03   -0.63445E-03   -0.53512E-03 10299   0.224E-01    0.293E-01
RMM:   4    -0.597921824394E+03    0.33924E-04   -0.28324E-03 11120   0.100E-01    0.224E-01
RMM:   5    -0.597920755156E+03    0.10692E-02   -0.17830E-03  9637   0.121E-01    0.863E-02
RMM:   6    -0.597920961526E+03   -0.20637E-03   -0.11716E-03 10030   0.817E-02    0.133E-01
RMM:   7    -0.597920729167E+03    0.23236E-03   -0.36638E-04  8642   0.645E-02    0.436E-02
RMM:   8    -0.597920719274E+03    0.98932E-05   -0.16581E-04 10606   0.258E-02    0.295E-02
RMM:   9    -0.597920713284E+03    0.59906E-05   -0.42923E-05  8571   0.153E-02    0.157E-02
RMM:  10    -0.597920712726E+03    0.55718E-06   -0.19793E-05  7519   0.988E-03    0.112E-02
RMM:  11    -0.597920712137E+03    0.58914E-06   -0.68756E-06  6426   0.675E-03
  12 F= -.59792071E+03 E0= -.59792321E+03  d E =-.324690E-02
 curvature: -20.22 expect dE=-0.911E-02 dE for cont linesearch -0.231E-03
 ZBRENT: increasing intervall
 opt :  67.8550  next Energy=  -597.920107 (dE=-0.264E-02)
 bond charge predicted
       N       E                     dE             d eps       ncg     rms          rms(c)
DAV:   1    -0.597914446375E+03    0.62664E-02   -0.32398E+00  8464   0.368E+00    0.511E-01
RMM:   2    -0.597923062149E+03   -0.86158E-02   -0.73617E-02  9421   0.979E-01    0.675E-01
RMM:   3    -0.597923513917E+03   -0.45177E-03   -0.20709E-02 10339   0.438E-01    0.516E-01
RMM:   4    -0.597923877284E+03   -0.36337E-03   -0.10686E-02 11088   0.195E-01    0.424E-01
RMM:   5    -0.597920296190E+03    0.35811E-02   -0.70313E-03  9627   0.240E-01    0.196E-01
RMM:   6    -0.597921258042E+03   -0.96185E-03   -0.48631E-03  9593   0.182E-01    0.298E-01
RMM:   7    -0.597920041519E+03    0.12165E-02   -0.14636E-03  8650   0.135E-01    0.682E-02
RMM:   8    -0.597920039624E+03    0.18950E-05   -0.63992E-04 10841   0.480E-02    0.564E-02
RMM:   9    -0.597920017892E+03    0.21733E-04   -0.14214E-04  9585   0.305E-02    0.326E-02
RMM:  10    -0.597920014625E+03    0.32671E-05   -0.81723E-05  9560   0.194E-02    0.221E-02
RMM:  11    -0.597920013184E+03    0.14408E-05   -0.31263E-05  8792   0.110E-02    0.165E-02
RMM:  12    -0.597920012350E+03    0.83439E-06   -0.11129E-05  7204   0.773E-03    0.854E-03
RMM:  13    -0.597920012451E+03   -0.10106E-06   -0.58953E-06  6244   0.557E-03
  13 F= -.59792001E+03 E0= -.59792270E+03  d E =-.254721E-02
 curvature:  53.06 expect dE= 0.135E+00 dE for cont linesearch  0.267E-02
 ZBRENT: bracketing found
 ZBRENT: interpolating
 opt :  43.8704  next Energy=  -597.920959 (dE=-0.349E-02)
 bond charge predicted
       N       E                     dE             d eps       ncg     rms          rms(c)
DAV:   1    -0.597918523281E+03    0.14891E-02   -0.14908E+00  8464   0.250E+00    0.346E-01
RMM:   2    -0.597922600895E+03   -0.40776E-02   -0.33582E-02  9406   0.652E-01    0.470E-01
RMM:   3    -0.597922522614E+03    0.78282E-04   -0.91673E-03 10345   0.292E-01    0.343E-01
RMM:   4    -0.597922781222E+03   -0.25861E-03   -0.50778E-03 11060   0.137E-01    0.291E-01
RMM:   5    -0.597921106246E+03    0.16750E-02   -0.32102E-03  9542   0.165E-01    0.126E-01
RMM:   6    -0.597921584083E+03   -0.47784E-03   -0.22834E-03  9596   0.121E-01    0.206E-01
RMM:   7    -0.597921016014E+03    0.56807E-03   -0.66083E-04  8654   0.899E-02    0.448E-02
RMM:   8    -0.597921019287E+03   -0.32724E-05   -0.30128E-04 10948   0.314E-02    0.393E-02
RMM:   9    -0.597921006393E+03    0.12894E-04   -0.58425E-05  8933   0.197E-02    0.203E-02
RMM:  10    -0.597921005020E+03    0.13736E-05   -0.35681E-05  8363   0.124E-02    0.136E-02
RMM:  11    -0.597921004462E+03    0.55765E-06   -0.12301E-05  7244   0.754E-03    0.106E-02
RMM:  12    -0.597921003997E+03    0.46503E-06   -0.42635E-06  5998   0.594E-03
  14 F= -.59792100E+03 E0= -.59792357E+03  d E =-.353876E-02
 curvature:  -4.91 expect dE=-0.425E-02 dE for cont linesearch -0.146E-05
 trial: gam= 5.56548 g(F)=  0.867E-03 g(S)=  0.000E+00 ort = 0.699E-05 (trialstep = 0.271E+00)
 search vector abs. value=  0.603E-02
 bond charge predicted
       N       E                     dE             d eps       ncg     rms          rms(c)
DAV:   1    -0.597921219150E+03   -0.21469E-03   -0.70136E-03  8832   0.172E-01    0.234E-02
RMM:   2    -0.597921235980E+03   -0.16830E-04   -0.15443E-04  9256   0.456E-02    0.283E-02
RMM:   3    -0.597921239272E+03   -0.32922E-05   -0.42637E-05  9715   0.191E-02    0.261E-02
RMM:   4    -0.597921233111E+03    0.61607E-05   -0.12942E-05  8412   0.783E-03    0.142E-02
RMM:   5    -0.597921233100E+03    0.11669E-07   -0.13879E-05  7261   0.120E-02    0.162E-02
RMM:   6    -0.597921232802E+03    0.29710E-06   -0.83388E-06  6355   0.988E-03
  15 F= -.59792123E+03 E0= -.59792381E+03  d E =-.228806E-03
 ZBRENT: can't locate minimum, use default step
 trial-energy change:   -0.000229  1 .order   -0.000228   -0.000246   -0.000210
 step:   1.0838(harm=  1.8962)  dis= 0.00905  next Energy=  -597.921863 (dE=-0.859E-03)
 bond charge predicted
       N       E                     dE             d eps       ncg     rms          rms(c)
DAV:   1    -0.597921617098E+03   -0.38400E-03   -0.63346E-02  8560   0.516E-01    0.710E-02
RMM:   2    -0.597921763228E+03   -0.14613E-03   -0.13889E-03  9539   0.132E-01    0.848E-02
RMM:   3    -0.597921798380E+03   -0.35151E-04   -0.39406E-04 10520   0.581E-02    0.795E-02
RMM:   4    -0.597921762999E+03    0.35381E-04   -0.17567E-04 10793   0.274E-02    0.540E-02
RMM:   5    -0.597921723163E+03    0.39836E-04   -0.13290E-04  9117   0.359E-02    0.309E-02
RMM:   6    -0.597921735518E+03   -0.12355E-04   -0.76250E-05  9111   0.241E-02    0.404E-02
RMM:   7    -0.597921714594E+03    0.20924E-04   -0.22811E-05  7868   0.171E-02    0.860E-03
RMM:   8    -0.597921715070E+03   -0.47609E-06   -0.98386E-06  6665   0.683E-03
  16 F= -.59792172E+03 E0= -.59792432E+03  d E =-.711073E-03
 curvature:  -4.73 expect dE=-0.832E-03 dE for cont linesearch -0.130E-03
 ZBRENT: increasing intervall
 opt :   2.7096  next Energy=  -597.921777 (dE=-0.773E-03)
 bond charge predicted
       N       E                     dE             d eps       ncg     rms          rms(c)
DAV:   1    -0.597921427504E+03    0.28709E-03   -0.25405E-01  8464   0.103E+00    0.141E-01
RMM:   2    -0.597922034008E+03   -0.60650E-03   -0.56271E-03  9361   0.271E-01    0.176E-01
RMM:   3    -0.597922123119E+03   -0.89112E-04   -0.15781E-03 10531   0.116E-01    0.151E-01
RMM:   4    -0.597921998459E+03    0.12466E-03   -0.66557E-04 11092   0.479E-02    0.960E-02
RMM:   5    -0.597921872407E+03    0.12605E-03   -0.56784E-04  9525   0.684E-02    0.661E-02
RMM:   6    -0.597921904265E+03   -0.31858E-04   -0.29281E-04  9310   0.481E-02    0.794E-02
RMM:   7    -0.597921825802E+03    0.78463E-04   -0.10240E-04  8594   0.353E-02    0.222E-02
RMM:   8    -0.597921823976E+03    0.18254E-05   -0.41791E-05  9048   0.143E-02    0.172E-02
RMM:   9    -0.597921821544E+03    0.24323E-05   -0.12739E-05  6858   0.936E-03    0.865E-03
RMM:  10    -0.597921821395E+03    0.14918E-06   -0.61188E-06  6204   0.649E-03
  17 F= -.59792182E+03 E0= -.59792450E+03  d E =-.817398E-03
 curvature:  -2.26 expect dE=-0.654E-03 dE for cont linesearch -0.324E-04
 ZBRENT: bracketing found
 ZBRENT: interpolating
 opt :   2.0286  next Energy=  -597.921921 (dE=-0.917E-03)
 bond charge predicted
       N       E                     dE             d eps       ncg     rms          rms(c)
DAV:   1    -0.597921848052E+03   -0.26508E-04   -0.44475E-02  8496   0.432E-01    0.591E-02
RMM:   2    -0.597921957136E+03   -0.10908E-03   -0.96672E-04  9093   0.116E-01    0.733E-02
RMM:   3    -0.597921968747E+03   -0.11611E-04   -0.27498E-04 10614   0.472E-02    0.637E-02
RMM:   4    -0.597921933482E+03    0.35264E-04   -0.92547E-05 10629   0.210E-02    0.369E-02
RMM:   5    -0.597921929713E+03    0.37693E-05   -0.96920E-05  8987   0.307E-02    0.362E-02
RMM:   6    -0.597921926102E+03    0.36110E-05   -0.40780E-05  8713   0.202E-02    0.296E-02
RMM:   7    -0.597921914395E+03    0.11708E-04   -0.13896E-05  7234   0.138E-02    0.857E-03
RMM:   8    -0.597921914088E+03    0.30630E-06   -0.45042E-06  6005   0.585E-03
  18 F= -.59792191E+03 E0= -.59792456E+03  d E =-.910092E-03
 curvature:  -6.98 expect dE=-0.497E-03 dE for cont linesearch -0.236E-06
 ZBRENT: interpolating
 opt :   2.0602  next Energy=  -597.921914 (dE=-0.910E-03)
 bond charge predicted
       N       E                     dE             d eps       ncg     rms          rms(c)
DAV:   1    -0.597921914043E+03    0.35203E-06   -0.98474E-05 10936   0.241E-02    0.553E-03
RMM:   2    -0.597921916990E+03   -0.29470E-05   -0.10481E-05  7355   0.108E-02    0.160E-02
RMM:   3    -0.597921914035E+03    0.29551E-05   -0.27485E-06  5716   0.766E-03    0.364E-03
RMM:   4    -0.597921914041E+03   -0.62664E-08   -0.58249E-07  4534   0.312E-03    0.319E-03
RMM:   5    -0.597921914059E+03   -0.18304E-07   -0.51368E-07  4494   0.312E-03
  19 F= -.59792191E+03 E0= -.59792456E+03  d E =-.910062E-03
 curvature:  -6.66 expect dE=-0.505E-03 dE for cont linesearch -0.324E-07
 trial: gam= 0.17820 g(F)=  0.759E-04 g(S)=  0.000E+00 ort =-0.542E-05 (trialstep = 0.629E+00)
 search vector abs. value=  0.265E-03
 bond charge predicted
       N       E                     dE             d eps       ncg     rms          rms(c)
DAV:   1    -0.597921957195E+03   -0.43154E-04   -0.16545E-03  8704   0.835E-02    0.111E-02
RMM:   2    -0.597921964544E+03   -0.73484E-05   -0.33066E-05  8820   0.208E-02    0.194E-02
RMM:   3    -0.597921960099E+03    0.44447E-05   -0.74355E-06  6972   0.907E-03    0.888E-03
RMM:   4    -0.597921960569E+03   -0.46992E-06   -0.38322E-06  5820   0.672E-03    0.107E-02
RMM:   5    -0.597921959678E+03    0.89124E-06   -0.25036E-06  5670   0.676E-03
  20 F= -.59792196E+03 E0= -.59792461E+03  d E =-.456186E-04
 ZBRENT: can't locate minimum, use default step
 trial-energy change:   -0.000046  1 .order   -0.000045   -0.000047   -0.000044
 step:   2.5152(harm=  8.7610)  dis= 0.00413  next Energy=  -597.922242 (dE=-0.328E-03)
 bond charge predicted
       N       E                     dE             d eps       ncg     rms          rms(c)
DAV:   1    -0.597922056386E+03   -0.95817E-04   -0.14902E-02  8496   0.250E-01    0.318E-02
RMM:   2    -0.597922081154E+03   -0.24768E-04   -0.27023E-04  9204   0.596E-02    0.332E-02
RMM:   3    -0.597922099144E+03   -0.17991E-04   -0.89369E-05  9991   0.291E-02    0.410E-02
RMM:   4    -0.597922096583E+03    0.25618E-05   -0.42730E-05 10348   0.130E-02    0.295E-02
RMM:   5    -0.597922078715E+03    0.17867E-04   -0.24939E-05  8594   0.144E-02    0.114E-02
RMM:   6    -0.597922082127E+03   -0.34116E-05   -0.18784E-05  7897   0.107E-02    0.178E-02
RMM:   7    -0.597922078509E+03    0.36183E-05   -0.60340E-06  6177   0.900E-03    0.655E-03
RMM:   8    -0.597922078079E+03    0.42969E-06   -0.16728E-06  5477   0.436E-03
  21 F= -.59792208E+03 E0= -.59792474E+03  d E =-.164020E-03
 curvature:  -6.36 expect dE=-0.279E-03 dE for cont linesearch -0.732E-04
 trial: gam=-0.16426 g(F)=  0.438E-04 g(S)=  0.000E+00 ort = 0.552E-04 (trialstep = 0.101E+01)
 search vector abs. value=  0.328E-04
 reached required accuracy - stopping structural energy minimisation
 augmentation electrons   31.643091833181089     
 soft         electrons   254.48468741440638     
 total        electrons   286.12777924758745     
 augmentation electrons   31.643091833181089     
 soft         electrons   254.48468741440638     
 total        electrons   286.12777924758745     
 augmentation electrons   31.643091833181089     
 soft         electrons   254.48468741440638     
 total        electrons   286.12777924758745     
 augmentation electrons   31.643091833181089     
 soft         electrons   254.48468741440638     
 total        electrons   286.12777924758745     
 augmentation electrons   31.643091833181089     
 soft         electrons   254.48468741440638     
 total        electrons   286.12777924758745     
 augmentation electrons   31.643091833181089     
 soft         electrons   254.48468741440638     
 total        electrons   286.12777924758745     
 augmentation electrons   31.643091833181089     
 soft         electrons   254.48468741440638     
 total        electrons   286.12777924758745     
 augmentation electrons   31.643091833181089     
 soft         electrons   254.48468741440638     
 total        electrons   286.12777924758745     
 augmentation electrons   31.643091833181089     
 soft         electrons   254.48468741440638     
 total        electrons   286.12777924758745     
 augmentation electrons   31.643091833181089     
 soft         electrons   254.48468741440638     
 total        electrons   286.12777924758745     
 augmentation electrons   31.643091833181089     
 soft         electrons   254.48468741440638     
 total        electrons   286.12777924758745     
 augmentation electrons   31.643091833181089     
 soft         electrons   254.48468741440638     
 total        electrons   286.12777924758745     
 augmentation electrons   31.643091833181089     
 soft         electrons   254.48468741440638     
 total        electrons   286.12777924758745     
 augmentation electrons   31.643091833181089     
 soft         electrons   254.48468741440638     
 total        electrons   286.12777924758745     
 augmentation electrons   31.643091833181089     
 soft         electrons   254.48468741440638     
 total        electrons   286.12777924758745     
 augmentation electrons   31.643091833181089     
 soft         electrons   254.48468741440638     
 total        electrons   286.12777924758745     
 augmentation electrons   31.643091833181089     
 soft         electrons   254.48468741440638     
 total        electrons   286.12777924758745     
 augmentation electrons   31.643091833181089     
 soft         electrons   254.48468741440638     
 total        electrons   286.12777924758745     
 augmentation electrons   31.643091833181089     
 soft         electrons   254.48468741440638     
 augmentation electrons   31.643091833181089     
 soft         electrons   254.48468741440638     
 total        electrons   286.12777924758745     
 augmentation electrons   31.643091833181089     
 soft         electrons   254.48468741440638     
 total        electrons   286.12777924758745     
 augmentation electrons   31.643091833181089     
 soft         electrons   254.48468741440638     
 total        electrons   286.12777924758745     
 augmentation electrons   31.643091833181089     
 soft         electrons   254.48468741440638     
 total        electrons   286.12777924758745     
 augmentation electrons   31.643091833181089     
 soft         electrons   254.48468741440638     
 total        electrons   286.12777924758745     
 augmentation electrons   31.643091833181089     
 soft         electrons   254.48468741440638     
 total        electrons   286.12777924758745     
 augmentation electrons   31.643091833181089     
 soft         electrons   254.48468741440638     
 total        electrons   286.12777924758745     
 augmentation electrons   31.643091833181089     
 soft         electrons   254.48468741440638     
 total        electrons   286.12777924758745     
 augmentation electrons   31.643091833181089     
 soft         electrons   254.48468741440638     
 total        electrons   286.12777924758745     
 augmentation electrons   31.643091833181089     
 soft         electrons   254.48468741440638     
 total        electrons   286.12777924758745     
 augmentation electrons   31.643091833181089     
 soft         electrons   254.48468741440638     
 total        electrons   286.12777924758745     
 augmentation electrons   31.643091833181089     
 soft         electrons   254.48468741440638     
 total        electrons   286.12777924758745     
 augmentation electrons   31.643091833181089     
 soft         electrons   254.48468741440638     
 total        electrons   286.12777924758745     
 augmentation electrons   31.643091833181089     
 soft         electrons   254.48468741440638     
 total        electrons   286.12777924758745     
 augmentation electrons   31.643091833181089     
 soft         electrons   254.48468741440638     
 total        electrons   286.12777924758745     
 augmentation electrons   31.643091833181089     
 soft         electrons   254.48468741440638     
 total        electrons   286.12777924758745     
 augmentation electrons   31.643091833181089     
 soft         electrons   254.48468741440638     
 total        electrons   286.12777924758745     
 augmentation electrons   31.643091833181089     
 soft         electrons   254.48468741440638     
 total        electrons   286.12777924758745     
 augmentation electrons   31.643091833181089     
 soft         electrons   254.48468741440638     
 total        electrons   286.12777924758745     
 augmentation electrons   31.643091833181089     
 soft         electrons   254.48468741440638     
 total        electrons   286.12777924758745     
 augmentation electrons   31.643091833181089     
 soft         electrons   254.48468741440638     
 total        electrons   286.12777924758745     
 augmentation electrons   31.643091833181089     
 soft         electrons   254.48468741440638     
 total        electrons   286.12777924758745     
 augmentation electrons   31.643091833181089     
 soft         electrons   254.48468741440638     
 total        electrons   286.12777924758745     
 augmentation electrons   31.643091833181089     
 soft         electrons   254.48468741440638     
 total        electrons   286.12777924758745     
 augmentation electrons   31.643091833181089     
 soft         electrons   254.48468741440638     
 total        electrons   286.12777924758745     
 augmentation electrons   31.643091833181089     
 soft         electrons   254.48468741440638     
 total        electrons   286.12777924758745     
 augmentation electrons   31.643091833181089     
 soft         electrons   254.48468741440638     
 total        electrons   286.12777924758745     
 augmentation electrons   31.643091833181089     
 soft         electrons   254.48468741440638     
 total        electrons   286.12777924758745     
 augmentation electrons   31.643091833181089     
 soft         electrons   254.48468741440638     
 total        electrons   286.12777924758745     
 augmentation electrons   31.643091833181089     
 soft         electrons   254.48468741440638     
 total        electrons   286.12777924758745     
 augmentation electrons   31.643091833181089     
 soft         electrons   254.48468741440638     
 total        electrons   286.12777924758745     
 augmentation electrons   31.643091833181089     
 soft         electrons   254.48468741440638     
 total        electrons   286.12777924758745     
 augmentation electrons   31.643091833181089     
 soft         electrons   254.48468741440638     
 total        electrons   286.12777924758745     
 augmentation electrons   31.643091833181089     
 soft         electrons   254.48468741440638     
 total        electrons   286.12777924758745     
 augmentation electrons   31.643091833181089     
 soft         electrons   254.48468741440638     
 total        electrons   286.12777924758745     
 augmentation electrons   31.643091833181089     
 soft         electrons   254.48468741440638     
 total        electrons   286.12777924758745     
 augmentation electrons   31.643091833181089     
 soft         electrons   254.48468741440638     
 total        electrons   286.12777924758745     
 augmentation electrons   31.643091833181089     
 soft         electrons   254.48468741440638     
 total        electrons   286.12777924758745     
 augmentation electrons   31.643091833181089     
 soft         electrons   254.48468741440638     
 total        electrons   286.12777924758745     
 augmentation electrons   31.643091833181089     
 soft         electrons   254.48468741440638     
 total        electrons   286.12777924758745     
 augmentation electrons   31.643091833181089     
 soft         electrons   254.48468741440638     
 total        electrons   286.12777924758745     
 augmentation electrons   31.643091833181089     
 soft         electrons   254.48468741440638     
 total        electrons   286.12777924758745     
 augmentation electrons   31.643091833181089     
 soft         electrons   254.48468741440638     
 total        electrons   286.12777924758745     
 augmentation electrons   31.643091833181089     
 soft         electrons   254.48468741440638     
 total        electrons   286.12777924758745     
 augmentation electrons   31.643091833181089     
 soft         electrons   254.48468741440638     
 total        electrons   286.12777924758745     
 augmentation electrons   31.643091833181089     
 soft         electrons   254.48468741440638     
 total        electrons   286.12777924758745     
 augmentation electrons   31.643091833181089     
 soft         electrons   254.48468741440638     
 total        electrons   286.12777924758745     
 augmentation electrons   31.643091833181089     
 soft         electrons   254.48468741440638     
 total        electrons   286.12777924758745     
 augmentation electrons   31.643091833181089     
 soft         electrons   254.48468741440638     
 total        electrons   286.12777924758745     
 augmentation electrons   31.643091833181089     
 soft         electrons   254.48468741440638     
 total        electrons   286.12777924758745     
 augmentation electrons   31.643091833181089     
 soft         electrons   254.48468741440638     
 total        electrons   286.12777924758745     
 augmentation electrons   31.643091833181089     
 soft         electrons   254.48468741440638     
 total        electrons   286.12777924758745     
 augmentation electrons   31.643091833181089     
 soft         electrons   254.48468741440638     
 total        electrons   286.12777924758745     
 total        electrons   286.12777924758745     
Note: The following floating-point exceptions are signalling: IEEE_OVERFLOW_FLAG
Note: The following floating-point exceptions are signalling: IEEE_OVERFLOW_FLAG
Note: The following floating-point exceptions are signalling: IEEE_OVERFLOW_FLAG
Note: The following floating-point exceptions are signalling: IEEE_INVALID_FLAG IEEE_OVERFLOW_FLAG
Note: The following floating-point exceptions are signalling: IEEE_OVERFLOW_FLAG
Note: The following floating-point exceptions are signalling: IEEE_OVERFLOW_FLAG
Note: The following floating-point exceptions are signalling: IEEE_OVERFLOW_FLAG
Note: The following floating-point exceptions are signalling: IEEE_OVERFLOW_FLAG
Note: The following floating-point exceptions are signalling: IEEE_OVERFLOW_FLAG
Note: The following floating-point exceptions are signalling: IEEE_OVERFLOW_FLAG
Note: The following floating-point exceptions are signalling: IEEE_OVERFLOW_FLAG
Note: The following floating-point exceptions are signalling: IEEE_OVERFLOW_FLAG
Note: The following floating-point exceptions are signalling: IEEE_OVERFLOW_FLAG
Note: The following floating-point exceptions are signalling: IEEE_OVERFLOW_FLAG
Note: The following floating-point exceptions are signalling: IEEE_OVERFLOW_FLAG
Note: The following floating-point exceptions are signalling: IEEE_OVERFLOW_FLAG
Note: The following floating-point exceptions are signalling: IEEE_OVERFLOW_FLAG
Note: The following floating-point exceptions are signalling: IEEE_OVERFLOW_FLAG
Note: The following floating-point exceptions are signalling: IEEE_OVERFLOW_FLAG
Note: The following floating-point exceptions are signalling: IEEE_OVERFLOW_FLAG
Note: The following floating-point exceptions are signalling: IEEE_OVERFLOW_FLAG
Note: The following floating-point exceptions are signalling: IEEE_OVERFLOW_FLAG
Note: The following floating-point exceptions are signalling: IEEE_OVERFLOW_FLAG
Note: The following floating-point exceptions are signalling: IEEE_OVERFLOW_FLAG
Note: The following floating-point exceptions are signalling: IEEE_OVERFLOW_FLAG
Note: The following floating-point exceptions are signalling: IEEE_OVERFLOW_FLAG
Note: The following floating-point exceptions are signalling: IEEE_OVERFLOW_FLAG
Note: The following floating-point exceptions are signalling: IEEE_OVERFLOW_FLAG
Note: The following floating-point exceptions are signalling: IEEE_OVERFLOW_FLAG
Note: The following floating-point exceptions are signalling: IEEE_OVERFLOW_FLAG
Note: The following floating-point exceptions are signalling: IEEE_OVERFLOW_FLAG
Note: The following floating-point exceptions are signalling: IEEE_OVERFLOW_FLAG
Note: The following floating-point exceptions are signalling: IEEE_OVERFLOW_FLAG
Note: The following floating-point exceptions are signalling: IEEE_OVERFLOW_FLAG
Note: The following floating-point exceptions are signalling: IEEE_OVERFLOW_FLAG
Note: The following floating-point exceptions are signalling: IEEE_OVERFLOW_FLAG
Note: The following floating-point exceptions are signalling: IEEE_OVERFLOW_FLAG
Note: The following floating-point exceptions are signalling: IEEE_OVERFLOW_FLAG
Note: The following floating-point exceptions are signalling: IEEE_OVERFLOW_FLAG
Note: The following floating-point exceptions are signalling: IEEE_OVERFLOW_FLAG
Note: The following floating-point exceptions are signalling: IEEE_OVERFLOW_FLAG
Note: The following floating-point exceptions are signalling: IEEE_OVERFLOW_FLAG
Note: The following floating-point exceptions are signalling: IEEE_OVERFLOW_FLAG
Note: The following floating-point exceptions are signalling: IEEE_OVERFLOW_FLAG
Note: The following floating-point exceptions are signalling: IEEE_OVERFLOW_FLAG
Note: The following floating-point exceptions are signalling: IEEE_OVERFLOW_FLAG
Note: The following floating-point exceptions are signalling: IEEE_OVERFLOW_FLAG
Note: The following floating-point exceptions are signalling: IEEE_OVERFLOW_FLAG
Note: The following floating-point exceptions are signalling: IEEE_OVERFLOW_FLAG
Note: The following floating-point exceptions are signalling: IEEE_OVERFLOW_FLAG
Note: The following floating-point exceptions are signalling: IEEE_OVERFLOW_FLAG
Note: The following floating-point exceptions are signalling: IEEE_INVALID_FLAG IEEE_OVERFLOW_FLAG
Note: The following floating-point exceptions are signalling: IEEE_OVERFLOW_FLAG
Note: The following floating-point exceptions are signalling: IEEE_OVERFLOW_FLAG
Note: The following floating-point exceptions are signalling: IEEE_OVERFLOW_FLAG
Note: The following floating-point exceptions are signalling: IEEE_OVERFLOW_FLAG
Note: The following floating-point exceptions are signalling: IEEE_OVERFLOW_FLAG
Note: The following floating-point exceptions are signalling: IEEE_OVERFLOW_FLAG
Note: The following floating-point exceptions are signalling: IEEE_OVERFLOW_FLAG
Note: The following floating-point exceptions are signalling: IEEE_OVERFLOW_FLAG
Note: The following floating-point exceptions are signalling: IEEE_OVERFLOW_FLAG
Note: The following floating-point exceptions are signalling: IEEE_OVERFLOW_FLAG
Note: The following floating-point exceptions are signalling: IEEE_OVERFLOW_FLAG
Note: The following floating-point exceptions are signalling: IEEE_OVERFLOW_FLAG
Note: The following floating-point exceptions are signalling: IEEE_OVERFLOW_FLAG
Note: The following floating-point exceptions are signalling: IEEE_OVERFLOW_FLAG
Note: The following floating-point exceptions are signalling: IEEE_OVERFLOW_FLAG
Note: The following floating-point exceptions are signalling: IEEE_OVERFLOW_FLAG
Note: The following floating-point exceptions are signalling: IEEE_OVERFLOW_FLAG
Note: The following floating-point exceptions are signalling: IEEE_OVERFLOW_FLAG
Note: The following floating-point exceptions are signalling: IEEE_OVERFLOW_FLAG
Note: The following floating-point exceptions are signalling: IEEE_OVERFLOW_FLAG
