   57   57   85    1
  0.1253331E+02  0.6078000E-09  0.6078000E-09  0.2233000E-08  0.5000000E-15
   1.0000000000000000E-004
  CAR 
 Name                                    
    205     41    132

  0.3742002E-15  0.3742002E-15  0.1262379E-14  0.1234568E-01
    1      -11.013059   1.000000
    2      -10.438734   1.000000
    3       -9.669644   1.000000
    4       -8.830213   1.000000
    5       -8.177695   1.000000
    6       -8.132831   1.000000
    7       -7.747430   1.000000
    8       -7.665447   1.000000
    9       -7.546884   1.000000
   10       -7.416149   1.000000
   11       -7.267012   1.000000
   12       -7.246877   1.000000
   13       -7.210156   1.000000
   14       -7.207638   1.000000
   15       -6.911899   1.000000
   16       -6.883618   1.000000
   17       -6.835894   1.000000
   18       -6.722707   1.000000
   19       -6.670299   1.000000
   20       -6.569048   1.000000
   21       -6.373924   1.000000
   22       -6.252987   1.000000
   23       -5.683174   1.000000
   24       -5.668267   1.000000
   25       -5.435151   1.000000
   26       -5.399621   1.000000
   27       -5.343653   1.000000
   28       -5.317772   1.000000
   29       -5.137580   1.000000
   30       -5.025654   1.000000
   31       -4.687764   1.000000
   32       -4.192662   1.000000
   33       -4.083039   1.000000
   34       -4.050994   1.000000
   35       -3.869003   1.000000
   36       -3.795016   1.000000
   37       -3.661194   1.000000
   38       -3.085310   1.000000
   39       -2.898608   1.000000
   40       -2.742377   1.000000
   41       -2.734144   1.000000
   42       -2.531436   1.000000
   43       -2.343757   1.000000
   44       -2.253626   1.000000
   45       -2.158847   1.000000
   46       -2.066586   1.000000
   47       -2.008565   1.000000
   48       -1.874339   1.000000
   49       -1.856642   1.000000
   50       -1.676231   1.000000
   51       -1.604167   1.000000
   52       -1.518430   1.000000
   53       -1.475686   1.000000
   54       -1.471749   1.000000
   55       -1.410340   1.000000
   56       -1.313325   1.000000
   57       -1.283768   1.000000
   58       -1.256968   1.000000
   59       -1.132045   1.000000
   60       -1.097402   1.000000
   61       -1.057268   1.000000
   62       -1.015330   1.000000
   63       -0.940037   1.000000
   64       -0.919556   1.000000
   65       -0.781175   1.000000
   66       -0.652153   1.000000
   67       -0.614239   1.000000
   68       -0.578209   1.000000
   69       -0.425134   1.000000
   70       -0.337032   1.000000
   71       -0.304873   1.000000
   72       -0.274719   1.000000
   73       -0.231486   1.000000
   74       -0.188372   1.000000
   75        0.033904   1.000000
   76        0.145672   1.000000
   77        0.270102   1.000000
   78        0.319171   1.000000
   79        0.335438   1.000000
   80        0.545244   1.000000
   81        0.860082   1.000000
   82        0.896327   1.000000
   83        0.940108   1.000000
   84        0.981889   1.000000
   85        1.083930   1.000000
   86        1.546869   1.000000
   87        1.726818   1.000000
   88        1.751127   1.000000
   89        1.798524   1.000000
   90        1.847172   1.000000
   91        1.871790   1.000000
   92        1.956205   1.000000
   93        1.974783   1.000000
   94        2.081273   1.000000
   95        2.123873   1.000000
   96        2.128603   1.000000
   97        2.435699   1.000000
   98        2.647216   1.000083
   99        2.807151   1.003658
  100        3.130863   0.921572
  101        3.235385   0.568195
  102        3.241795   0.541265
  103        3.429785  -0.009829
  104        3.524171  -0.033033
  105        3.569438  -0.023557
  106        3.700733  -0.003339
  107        3.702616  -0.003220
  108        3.827586  -0.000180
  109        4.059051  -0.000000
  110        4.077668  -0.000000
  111        4.082258  -0.000000
  112        4.158920  -0.000000
  113        4.236257  -0.000000
  114        4.372299  -0.000000
  115        4.375040  -0.000000
  116        4.416246  -0.000000
  117        4.426738  -0.000000
  118        4.528482  -0.000000
  119        4.563399  -0.000000
  120        4.592006  -0.000000
  121        4.627137  -0.000000
  122        4.671452  -0.000000
  123        4.725396  -0.000000
  124        4.784513  -0.000000
  125        4.810145  -0.000000
  126        4.868536  -0.000000
  127        4.874071  -0.000000
  128        5.071167  -0.000000
  129        5.299877  -0.000000
  130        5.405676  -0.000000
  131        5.484650  -0.000000
  132        5.618238  -0.000000

  0.1111111E+00  0.3687552E-15  0.1262379E-14  0.2469136E-01
    1      -10.955514   1.000000
    2      -10.386450   1.000000
    3       -9.628793   1.000000
    4       -8.796544   1.000000
    5       -8.168156   1.000000
    6       -8.140167   1.000000
    7       -7.851360   1.000000
    8       -7.816593   1.000000
    9       -7.714589   1.000000
   10       -7.614803   1.000000
   11       -7.513697   1.000000
   12       -7.448813   1.000000
   13       -7.318279   1.000000
   14       -7.302389   1.000000
   15       -7.037683   1.000000
   16       -6.695277   1.000000
   17       -6.648114   1.000000
   18       -6.595065   1.000000
   19       -6.407936   1.000000
   20       -6.319102   1.000000
   21       -6.257275   1.000000
   22       -6.072849   1.000000
   23       -5.680204   1.000000
   24       -5.632630   1.000000
   25       -5.491533   1.000000
   26       -5.377954   1.000000
   27       -5.329537   1.000000
   28       -5.213381   1.000000
   29       -5.139583   1.000000
   30       -4.924870   1.000000
   31       -4.630443   1.000000
   32       -4.078737   1.000000
   33       -4.022485   1.000000
   34       -3.890674   1.000000
   35       -3.809581   1.000000
   36       -3.763330   1.000000
   37       -3.465411   1.000000
   38       -3.072619   1.000000
   39       -2.887288   1.000000
   40       -2.727503   1.000000
   41       -2.684780   1.000000
   42       -2.586087   1.000000
   43       -2.444933   1.000000
   44       -2.216457   1.000000
   45       -2.205963   1.000000
   46       -2.103880   1.000000
   47       -2.049660   1.000000
   48       -1.958425   1.000000
   49       -1.909585   1.000000
   50       -1.826568   1.000000
   51       -1.668246   1.000000
   52       -1.604004   1.000000
   53       -1.497514   1.000000
   54       -1.429821   1.000000
   55       -1.420850   1.000000
   56       -1.386406   1.000000
   57       -1.235850   1.000000
   58       -1.176069   1.000000
   59       -1.130786   1.000000
   60       -1.079425   1.000000
   61       -1.055833   1.000000
   62       -1.010624   1.000000
   63       -0.957958   1.000000
   64       -0.909518   1.000000
   65       -0.807417   1.000000
   66       -0.702103   1.000000
   67       -0.689153   1.000000
   68       -0.601955   1.000000
   69       -0.549330   1.000000
   70       -0.460287   1.000000
   71       -0.371849   1.000000
   72       -0.302071   1.000000
   73       -0.188182   1.000000
   74       -0.124422   1.000000
   75        0.035348   1.000000
   76        0.096419   1.000000
   77        0.212667   1.000000
   78        0.293117   1.000000
   79        0.319660   1.000000
   80        0.497329   1.000000
   81        0.605273   1.000000
   82        0.635668   1.000000
   83        0.939924   1.000000
   84        1.037323   1.000000
   85        1.103018   1.000000
   86        1.376618   1.000000
   87        1.459717   1.000000
   88        1.622753   1.000000
   89        1.728115   1.000000
   90        1.801433   1.000000
   91        1.860817   1.000000
   92        1.951406   1.000000
   93        1.980417   1.000000
   94        2.037380   1.000000
   95        2.139187   1.000000
   96        2.244686   1.000000
   97        2.500139   1.000001
   98        2.865535   1.009953
   99        2.974152   1.032236
  100        3.109905   0.962730
  101        3.214095   0.655484
  102        3.258929   0.468843
  103        3.335382   0.177506
  104        3.402017   0.023187
  105        3.457018  -0.027732
  106        3.674167  -0.005456
  107        3.899453  -0.000023
  108        3.951739  -0.000004
  109        4.044311  -0.000000
  110        4.076566  -0.000000
  111        4.092126  -0.000000
  112        4.173865  -0.000000
  113        4.252036  -0.000000
  114        4.301097  -0.000000
  115        4.358405  -0.000000
  116        4.389353  -0.000000
  117        4.435083  -0.000000
  118        4.470708  -0.000000
  119        4.493933  -0.000000
  120        4.507934  -0.000000
  121        4.607961  -0.000000
  122        4.663401  -0.000000
  123        4.682396  -0.000000
  124        4.750805  -0.000000
  125        4.791980  -0.000000
  126        4.833569  -0.000000
  127        4.885229  -0.000000
  128        5.048869  -0.000000
  129        5.252185  -0.000000
  130        5.310869  -0.000000
  131        5.467369  -0.000000
  132        5.506557  -0.000000

  0.2222222E+00  0.3503827E-15  0.1262379E-14  0.2469136E-01
    1      -10.785070   1.000000
    2      -10.232126   1.000000
    3       -9.509995   1.000000
    4       -8.701830   1.000000
    5       -8.469898   1.000000
    6       -8.326623   1.000000
    7       -8.185984   1.000000
    8       -8.025989   1.000000
    9       -7.836502   1.000000
   10       -7.716191   1.000000
   11       -7.653453   1.000000
   12       -7.617819   1.000000
   13       -7.547336   1.000000
   14       -7.462335   1.000000
   15       -7.302013   1.000000
   16       -6.672515   1.000000
   17       -6.515738   1.000000
   18       -6.291559   1.000000
   19       -6.236155   1.000000
   20       -6.083921   1.000000
   21       -5.989358   1.000000
   22       -5.671871   1.000000
   23       -5.545745   1.000000
   24       -5.432979   1.000000
   25       -5.383073   1.000000
   26       -5.310789   1.000000
   27       -5.228409   1.000000
   28       -5.096485   1.000000
   29       -4.759165   1.000000
   30       -4.691669   1.000000
   31       -4.422728   1.000000
   32       -3.910596   1.000000
   33       -3.880762   1.000000
   34       -3.740572   1.000000
   35       -3.632177   1.000000
   36       -3.374542   1.000000
   37       -3.087484   1.000000
   38       -3.049953   1.000000
   39       -2.891904   1.000000
   40       -2.805987   1.000000
   41       -2.740963   1.000000
   42       -2.638330   1.000000
   43       -2.614059   1.000000
   44       -2.567752   1.000000
   45       -2.434317   1.000000
   46       -2.152586   1.000000
   47       -2.104991   1.000000
   48       -2.038305   1.000000
   49       -1.887759   1.000000
   50       -1.779849   1.000000
   51       -1.710245   1.000000
   52       -1.653461   1.000000
   53       -1.583451   1.000000
   54       -1.481702   1.000000
   55       -1.455549   1.000000
   56       -1.403562   1.000000
   57       -1.351876   1.000000
   58       -1.297088   1.000000
   59       -1.195911   1.000000
   60       -1.126732   1.000000
   61       -1.052033   1.000000
   62       -1.029267   1.000000
   63       -0.999032   1.000000
   64       -0.977420   1.000000
   65       -0.943451   1.000000
   66       -0.847984   1.000000
   67       -0.812656   1.000000
   68       -0.705928   1.000000
   69       -0.652134   1.000000
   70       -0.610235   1.000000
   71       -0.493932   1.000000
   72       -0.346989   1.000000
   73       -0.248670   1.000000
   74       -0.181004   1.000000
   75       -0.119004   1.000000
   76       -0.062977   1.000000
   77       -0.006279   1.000000
   78        0.194198   1.000000
   79        0.348524   1.000000
   80        0.407322   1.000000
   81        0.476777   1.000000
   82        0.600941   1.000000
   83        0.785527   1.000000
   84        0.995255   1.000000
   85        1.045340   1.000000
   86        1.092996   1.000000
   87        1.267087   1.000000
   88        1.449456   1.000000
   89        1.524020   1.000000
   90        1.734509   1.000000
   91        1.753678   1.000000
   92        1.901509   1.000000
   93        1.920647   1.000000
   94        1.945311   1.000000
   95        2.214906   1.000000
   96        2.313287   1.000000
   97        2.385567   1.000000
   98        2.767439   1.001639
   99        2.836232   1.006192
  100        3.101188   0.976686
  101        3.205980   0.687422
  102        3.295446   0.319171
  103        3.444688  -0.021184
  104        3.546078  -0.028855
  105        3.655875  -0.007452
  106        3.727249  -0.001959
  107        3.856583  -0.000081
  108        3.895790  -0.000026
  109        3.926680  -0.000010
  110        3.948585  -0.000005
  111        4.016588  -0.000000
  112        4.088023  -0.000000
  113        4.167311  -0.000000
  114        4.208396  -0.000000
  115        4.245637  -0.000000
  116        4.296707  -0.000000
  117        4.353378  -0.000000
  118        4.374738  -0.000000
  119        4.426586  -0.000000
  120        4.503911  -0.000000
  121        4.555770  -0.000000
  122        4.607374  -0.000000
  123        4.687383  -0.000000
  124        4.761155  -0.000000
  125        4.813692  -0.000000
  126        4.885704  -0.000000
  127        4.963991  -0.000000
  128        4.996605  -0.000000
  129        5.089316  -0.000000
  130        5.253072  -0.000000
  131        5.308129  -0.000000
  132        5.442332  -0.000000

  0.3333333E+00  0.3767071E-15  0.1262379E-14  0.2469136E-01
    1      -10.508980   1.000000
    2       -9.983825   1.000000
    3       -9.327022   1.000000
    4       -9.080315   1.000000
    5       -8.755011   1.000000
    6       -8.531587   1.000000
    7       -8.463145   1.000000
    8       -7.943855   1.000000
    9       -7.875421   1.000000
   10       -7.837833   1.000000
   11       -7.738968   1.000000
   12       -7.675003   1.000000
   13       -7.655912   1.000000
   14       -7.606684   1.000000
   15       -7.561368   1.000000
   16       -6.871088   1.000000
   17       -6.728438   1.000000
   18       -6.081079   1.000000
   19       -5.985659   1.000000
   20       -5.819652   1.000000
   21       -5.633719   1.000000
   22       -5.519280   1.000000
   23       -5.386493   1.000000
   24       -5.375024   1.000000
   25       -5.281017   1.000000
   26       -5.158795   1.000000
   27       -4.643932   1.000000
   28       -4.520736   1.000000
   29       -4.359508   1.000000
   30       -4.232377   1.000000
   31       -4.096517   1.000000
   32       -3.714575   1.000000
   33       -3.635703   1.000000
   34       -3.608864   1.000000
   35       -3.425135   1.000000
   36       -3.279720   1.000000
   37       -3.188868   1.000000
   38       -3.132740   1.000000
   39       -3.087099   1.000000
   40       -3.054437   1.000000
   41       -2.963704   1.000000
   42       -2.847285   1.000000
   43       -2.672972   1.000000
   44       -2.402903   1.000000
   45       -2.351294   1.000000
   46       -2.291710   1.000000
   47       -2.059474   1.000000
   48       -1.995345   1.000000
   49       -1.911222   1.000000
   50       -1.847163   1.000000
   51       -1.826205   1.000000
   52       -1.752196   1.000000
   53       -1.700601   1.000000
   54       -1.670345   1.000000
   55       -1.606694   1.000000
   56       -1.510235   1.000000
   57       -1.454216   1.000000
   58       -1.369813   1.000000
   59       -1.335261   1.000000
   60       -1.270571   1.000000
   61       -1.208489   1.000000
   62       -1.186737   1.000000
   63       -1.107057   1.000000
   64       -1.063856   1.000000
   65       -1.013067   1.000000
   66       -0.924074   1.000000
   67       -0.900488   1.000000
   68       -0.794117   1.000000
   69       -0.733284   1.000000
   70       -0.639762   1.000000
   71       -0.569167   1.000000
   72       -0.446965   1.000000
   73       -0.367243   1.000000
   74       -0.307982   1.000000
   75       -0.253212   1.000000
   76       -0.120302   1.000000
   77       -0.074144   1.000000
   78       -0.056250   1.000000
   79        0.192605   1.000000
   80        0.296823   1.000000
   81        0.538099   1.000000
   82        0.584341   1.000000
   83        0.786536   1.000000
   84        0.851272   1.000000
   85        1.032074   1.000000
   86        1.115716   1.000000
   87        1.182484   1.000000
   88        1.413916   1.000000
   89        1.424332   1.000000
   90        1.606434   1.000000
   91        1.660101   1.000000
   92        1.763630   1.000000
   93        1.847785   1.000000
   94        1.910483   1.000000
   95        2.053042   1.000000
   96        2.231008   1.000000
   97        2.493356   1.000001
   98        2.579685   1.000011
   99        2.618925   1.000036
  100        2.950657   1.027449
  101        3.104558   0.971505
  102        3.231383   0.584897
  103        3.316659   0.240055
  104        3.411980   0.009417
  105        3.505766  -0.035148
  106        3.589782  -0.018937
  107        3.665215  -0.006372
  108        3.736366  -0.001615
  109        3.797511  -0.000390
  110        3.888487  -0.000032
  111        3.941960  -0.000006
  112        3.996643  -0.000001
  113        4.045381  -0.000000
  114        4.123382  -0.000000
  115        4.163988  -0.000000
  116        4.267135  -0.000000
  117        4.302486  -0.000000
  118        4.378521  -0.000000
  119        4.395547  -0.000000
  120        4.484629  -0.000000
  121        4.529736  -0.000000
  122        4.624812  -0.000000
  123        4.761626  -0.000000
  124        4.806764  -0.000000
  125        4.876578  -0.000000
  126        4.935015  -0.000000
  127        4.994479  -0.000000
  128        5.060534  -0.000000
  129        5.139260  -0.000000
  130        5.214775  -0.000000
  131        5.343859  -0.000000
  132        5.428617  -0.000000

  0.4444444E+00  0.3698634E-15  0.1262379E-14  0.2469136E-01
    1      -10.151096   1.000000
    2       -9.681216   1.000000
    3       -9.581428   1.000000
    4       -9.240259   1.000000
    5       -9.058651   1.000000
    6       -8.742888   1.000000
    7       -8.329029   1.000000
    8       -7.991816   1.000000
    9       -7.939118   1.000000
   10       -7.929138   1.000000
   11       -7.824229   1.000000
   12       -7.685365   1.000000
   13       -7.678161   1.000000
   14       -7.609980   1.000000
   15       -7.560571   1.000000
   16       -7.242510   1.000000
   17       -6.761449   1.000000
   18       -5.987875   1.000000
   19       -5.880854   1.000000
   20       -5.802108   1.000000
   21       -5.492380   1.000000
   22       -5.277289   1.000000
   23       -5.247852   1.000000
   24       -5.151941   1.000000
   25       -5.105501   1.000000
   26       -5.037250   1.000000
   27       -4.120197   1.000000
   28       -4.058890   1.000000
   29       -3.872263   1.000000
   30       -3.819984   1.000000
   31       -3.773823   1.000000
   32       -3.671064   1.000000
   33       -3.642667   1.000000
   34       -3.548422   1.000000
   35       -3.496396   1.000000
   36       -3.357997   1.000000
   37       -3.291131   1.000000
   38       -3.287787   1.000000
   39       -3.226185   1.000000
   40       -3.118178   1.000000
   41       -3.028973   1.000000
   42       -2.993868   1.000000
   43       -2.864213   1.000000
   44       -2.769253   1.000000
   45       -2.376643   1.000000
   46       -2.288063   1.000000
   47       -2.127619   1.000000
   48       -2.083036   1.000000
   49       -1.992162   1.000000
   50       -1.862181   1.000000
   51       -1.833355   1.000000
   52       -1.799380   1.000000
   53       -1.694169   1.000000
   54       -1.658343   1.000000
   55       -1.593761   1.000000
   56       -1.552998   1.000000
   57       -1.493612   1.000000
   58       -1.436334   1.000000
   59       -1.372176   1.000000
   60       -1.356648   1.000000
   61       -1.313450   1.000000
   62       -1.249153   1.000000
   63       -1.212657   1.000000
   64       -1.177617   1.000000
   65       -1.131250   1.000000
   66       -0.973877   1.000000
   67       -0.908003   1.000000
   68       -0.835667   1.000000
   69       -0.740147   1.000000
   70       -0.727634   1.000000
   71       -0.598691   1.000000
   72       -0.516773   1.000000
   73       -0.418373   1.000000
   74       -0.366185   1.000000
   75       -0.284331   1.000000
   76       -0.212676   1.000000
   77       -0.118613   1.000000
   78       -0.072998   1.000000
   79       -0.022112   1.000000
   80        0.208339   1.000000
   81        0.559874   1.000000
   82        0.626795   1.000000
   83        0.674375   1.000000
   84        0.820379   1.000000
   85        1.028771   1.000000
   86        1.154404   1.000000
   87        1.241182   1.000000
   88        1.372391   1.000000
   89        1.428713   1.000000
   90        1.516138   1.000000
   91        1.650852   1.000000
   92        1.696466   1.000000
   93        1.857772   1.000000
   94        1.900939   1.000000
   95        2.039341   1.000000
   96        2.240046   1.000000
   97        2.429278   1.000000
   98        2.571654   1.000008
   99        2.606829   1.000025
  100        2.716907   1.000516
  101        2.796912   1.003001
  102        3.016991   1.035013
  103        3.137888   0.905312
  104        3.252011   0.498094
  105        3.357383   0.114333
  106        3.445279  -0.021553
  107        3.511199  -0.034707
  108        3.635695  -0.010242
  109        3.700858  -0.003331
  110        3.752974  -0.001122
  111        3.868095  -0.000058
  112        3.900590  -0.000022
  113        3.911116  -0.000016
  114        4.033659  -0.000000
  115        4.064277  -0.000000
  116        4.193588  -0.000000
  117        4.260056  -0.000000
  118        4.337891  -0.000000
  119        4.366208  -0.000000
  120        4.465650  -0.000000
  121        4.600974  -0.000000
  122        4.777482  -0.000000
  123        4.808081  -0.000000
  124        4.873774  -0.000000
  125        4.958779  -0.000000
  126        5.019385  -0.000000
  127        5.123247  -0.000000
  128        5.209282  -0.000000
  129        5.280604  -0.000000
  130        5.319308  -0.000000
  131        5.427755  -0.000000
  132        5.564007  -0.000000

  0.3742002E-15  0.1111111E+00  0.1262379E-14  0.2469136E-01
    1      -10.955514   1.000000
    2      -10.386449   1.000000
    3       -9.628793   1.000000
    4       -8.796552   1.000000
    5       -8.168146   1.000000
    6       -8.140162   1.000000
    7       -7.851374   1.000000
    8       -7.816659   1.000000
    9       -7.714531   1.000000
   10       -7.614904   1.000000
   11       -7.513624   1.000000
   12       -7.448933   1.000000
   13       -7.318267   1.000000
   14       -7.302196   1.000000
   15       -7.037717   1.000000
   16       -6.695115   1.000000
   17       -6.648254   1.000000
   18       -6.595112   1.000000
   19       -6.408063   1.000000
   20       -6.318942   1.000000
   21       -6.257280   1.000000
   22       -6.072912   1.000000
   23       -5.679927   1.000000
   24       -5.632642   1.000000
   25       -5.491453   1.000000
   26       -5.377872   1.000000
   27       -5.329507   1.000000
   28       -5.213430   1.000000
   29       -5.139794   1.000000
   30       -4.925327   1.000000
   31       -4.630381   1.000000
   32       -4.078665   1.000000
   33       -4.022475   1.000000
   34       -3.890802   1.000000
   35       -3.808837   1.000000
   36       -3.763480   1.000000
   37       -3.465692   1.000000
   38       -3.072659   1.000000
   39       -2.887274   1.000000
   40       -2.727809   1.000000
   41       -2.684331   1.000000
   42       -2.586161   1.000000
   43       -2.444873   1.000000
   44       -2.215525   1.000000
   45       -2.206740   1.000000
   46       -2.104599   1.000000
   47       -2.048600   1.000000
   48       -1.959328   1.000000
   49       -1.909375   1.000000
   50       -1.826764   1.000000
   51       -1.667712   1.000000
   52       -1.604958   1.000000
   53       -1.497118   1.000000
   54       -1.429536   1.000000
   55       -1.421104   1.000000
   56       -1.386249   1.000000
   57       -1.235396   1.000000
   58       -1.176311   1.000000
   59       -1.131002   1.000000
   60       -1.079413   1.000000
   61       -1.055008   1.000000
   62       -1.011838   1.000000
   63       -0.957597   1.000000
   64       -0.908818   1.000000
   65       -0.808323   1.000000
   66       -0.702458   1.000000
   67       -0.689395   1.000000
   68       -0.601498   1.000000
   69       -0.548538   1.000000
   70       -0.460850   1.000000
   71       -0.371780   1.000000
   72       -0.301861   1.000000
   73       -0.189211   1.000000
   74       -0.123778   1.000000
   75        0.035524   1.000000
   76        0.096477   1.000000
   77        0.212806   1.000000
   78        0.293457   1.000000
   79        0.318752   1.000000
   80        0.497457   1.000000
   81        0.604947   1.000000
   82        0.636348   1.000000
   83        0.940088   1.000000
   84        1.035782   1.000000
   85        1.104420   1.000000
   86        1.376510   1.000000
   87        1.459819   1.000000
   88        1.622995   1.000000
   89        1.727384   1.000000
   90        1.801978   1.000000
   91        1.860625   1.000000
   92        1.951469   1.000000
   93        1.980360   1.000000
   94        2.037413   1.000000
   95        2.139223   1.000000
   96        2.244719   1.000000
   97        2.500020   1.000001
   98        2.866656   1.010124
   99        2.972986   1.032030
  100        3.110354   0.961962
  101        3.215368   0.650398
  102        3.258039   0.472602
  103        3.333117   0.184663
  104        3.403372   0.021180
  105        3.457349  -0.027876
  106        3.674070  -0.005465
  107        3.899775  -0.000023
  108        3.953003  -0.000004
  109        4.044012  -0.000000
  110        4.074855  -0.000000
  111        4.092378  -0.000000
  112        4.174802  -0.000000
  113        4.251524  -0.000000
  114        4.301030  -0.000000
  115        4.358396  -0.000000
  116        4.389316  -0.000000
  117        4.434918  -0.000000
  118        4.471028  -0.000000
  119        4.494005  -0.000000
  120        4.507387  -0.000000
  121        4.607814  -0.000000
  122        4.663815  -0.000000
  123        4.682635  -0.000000
  124        4.750807  -0.000000
  125        4.791847  -0.000000
  126        4.834786  -0.000000
  127        4.884745  -0.000000
  128        5.048959  -0.000000
  129        5.252392  -0.000000
  130        5.309646  -0.000000
  131        5.467396  -0.000000
  132        5.507648  -0.000000

  0.1111111E+00  0.1111111E+00  0.1262379E-14  0.2469136E-01
    1      -10.841230   1.000000
    2      -10.282924   1.000000
    3       -9.548687   1.000000
    4       -8.731094   1.000000
    5       -8.235639   1.000000
    6       -8.212939   1.000000
    7       -8.100791   1.000000
    8       -8.047792   1.000000
    9       -7.922422   1.000000
   10       -7.851704   1.000000
   11       -7.753810   1.000000
   12       -7.617618   1.000000
   13       -7.349682   1.000000
   14       -7.234558   1.000000
   15       -6.897363   1.000000
   16       -6.892082   1.000000
   17       -6.639136   1.000000
   18       -6.408340   1.000000
   19       -6.306094   1.000000
   20       -6.256623   1.000000
   21       -5.833597   1.000000
   22       -5.746932   1.000000
   23       -5.610284   1.000000
   24       -5.518647   1.000000
   25       -5.408713   1.000000
   26       -5.260229   1.000000
   27       -5.159473   1.000000
   28       -5.155270   1.000000
   29       -4.920407   1.000000
   30       -4.919278   1.000000
   31       -4.597435   1.000000
   32       -4.174070   1.000000
   33       -3.749337   1.000000
   34       -3.660527   1.000000
   35       -3.604762   1.000000
   36       -3.558215   1.000000
   37       -3.224998   1.000000
   38       -3.079722   1.000000
   39       -2.910967   1.000000
   40       -2.788852   1.000000
   41       -2.680121   1.000000
   42       -2.623696   1.000000
   43       -2.615570   1.000000
   44       -2.407629   1.000000
   45       -2.239582   1.000000
   46       -2.126804   1.000000
   47       -2.090100   1.000000
   48       -1.964514   1.000000
   49       -1.879955   1.000000
   50       -1.816892   1.000000
   51       -1.784455   1.000000
   52       -1.630827   1.000000
   53       -1.623462   1.000000
   54       -1.554332   1.000000
   55       -1.447577   1.000000
   56       -1.406064   1.000000
   57       -1.263800   1.000000
   58       -1.211583   1.000000
   59       -1.159427   1.000000
   60       -1.127202   1.000000
   61       -1.095141   1.000000
   62       -0.993157   1.000000
   63       -0.971574   1.000000
   64       -0.855307   1.000000
   65       -0.852008   1.000000
   66       -0.831693   1.000000
   67       -0.813112   1.000000
   68       -0.656407   1.000000
   69       -0.639955   1.000000
   70       -0.526220   1.000000
   71       -0.397908   1.000000
   72       -0.395206   1.000000
   73       -0.237133   1.000000
   74       -0.176501   1.000000
   75       -0.097660   1.000000
   76       -0.038469   1.000000
   77        0.075968   1.000000
   78        0.151358   1.000000
   79        0.343173   1.000000
   80        0.487878   1.000000
   81        0.491255   1.000000
   82        0.656634   1.000000
   83        0.850396   1.000000
   84        0.858348   1.000000
   85        1.019771   1.000000
   86        1.076452   1.000000
   87        1.390165   1.000000
   88        1.511962   1.000000
   89        1.708858   1.000000
   90        1.813011   1.000000
   91        1.819322   1.000000
   92        1.873687   1.000000
   93        1.880824   1.000000
   94        1.992750   1.000000
   95        2.062413   1.000000
   96        2.351707   1.000000
   97        2.501777   1.000001
   98        2.784061   1.002320