   49   49    1    1
  0.2411350E+02  0.8645320E-09  0.6085000E-09  0.2593596E-08  0.5000000E-15
   1.0000000000000000E-004
  CAR 
 Name                                    
    179    149    114

  0.3742002E-15  0.3742002E-15  0.3742002E-15  0.3367003E-02
    1      -13.953276   1.000000
    2      -12.748510   1.000000
    3      -12.409905   1.000000
    4      -11.950165   1.000000
    5      -11.598397   1.000000
    6      -11.207239   1.000000
    7      -11.167696   1.000000
    8      -10.856145   1.000000
    9      -10.731740   1.000000
   10      -10.705369   1.000000
   11      -10.583378   1.000000
   12      -10.469067   1.000000
   13      -10.315290   1.000000
   14      -10.163533   1.000000
   15       -9.776046   1.000000
   16       -9.276033   1.000000
   17       -9.162958   1.000000
   18       -9.068431   1.000000
   19       -8.867255   1.000000
   20       -8.549403   1.000000
   21       -8.375706   1.000000
   22       -8.202967   1.000000
   23       -8.027645   1.000000
   24       -7.958110   1.000000
   25       -7.559615   1.000000
   26       -7.519058   1.000000
   27       -7.427040   1.000000
   28       -7.203223   1.000000
   29       -7.128972   1.000000
   30       -6.542710   1.000000
   31       -6.274538   1.000000
   32       -6.185984   1.000000
   33       -6.150919   1.000000
   34       -6.039504   1.000000
   35       -5.887434   1.000000
   36       -5.804139   1.000000
   37       -5.524972   1.000000
   38       -5.444355   1.000000
   39       -5.382452   1.000000
   40       -5.299683   1.000000
   41       -5.215667   1.000000
   42       -5.007567   1.000000
   43       -4.943396   1.000000
   44       -4.862474   1.000000
   45       -4.739977   1.000000
   46       -4.729684   1.000000
   47       -4.660129   1.000000
   48       -4.577521   1.000000
   49       -4.507947   1.000000
   50       -4.350504   1.000000
   51       -4.281011   1.000000
   52       -4.208684   1.000000
   53       -4.141576   1.000000
   54       -3.962728   1.000000
   55       -3.961823   1.000000
   56       -3.900339   1.000000
   57       -3.840294   1.000000
   58       -3.772854   1.000000
   59       -3.736178   1.000000
   60       -3.647002   1.000000
   61       -3.625992   1.000000
   62       -3.444313   1.000000
   63       -3.410619   1.000000
   64       -3.278070   1.000000
   65       -3.254198   1.000000
   66       -3.113415   1.000000
   67       -2.966743   1.000000
   68       -2.906757   1.000000
   69       -2.754885   1.000000
   70       -2.674530   1.000000
   71       -2.498544   1.000000
   72       -2.384985   1.000000
   73       -2.259517   1.000000
   74       -2.166420   1.000000
   75       -2.039860   1.000000
   76       -1.725977   1.000000
   77       -1.654441   1.000000
   78       -1.578775   1.000000
   79       -1.499874   1.000000
   80       -1.392673   1.000000
   81       -1.342823   1.000000
   82       -1.098141   1.000000
   83       -1.050429   1.000000
   84       -0.791477   1.000036
   85       -0.564456   1.007292
   86       -0.416725   1.034867
   87       -0.290679   0.944838
   88       -0.202620   0.680470
   89       -0.024688   0.050778
   90        0.046340  -0.027605
   91        0.087178  -0.035454
   92        0.128129  -0.030434
   93        0.234841  -0.008844
   94        0.274534  -0.004496
   95        0.471023  -0.000040
   96        0.506312  -0.000013
   97        0.519075  -0.000009
   98        0.564500  -0.000002
   99        0.674974  -0.000000
  100        0.710479  -0.000000
  101        0.799718  -0.000000
  102        0.843610  -0.000000
  103        0.968274  -0.000000
  104        1.098449  -0.000000
  105        1.187150  -0.000000
  106        1.197691  -0.000000
  107        1.264982  -0.000000
  108        1.289902  -0.000000
  109        1.380775  -0.000000
  110        1.467863  -0.000000
  111        1.591055  -0.000000
  112        1.734267  -0.000000
  113        1.921630  -0.000000
  114        3.789922  -0.000000

  0.1111111E+00  0.3729374E-15  0.3860503E-15  0.6734007E-02
    1      -13.929511   1.000000
    2      -12.740377   1.000000
    3      -12.512884   1.000000
    4      -11.887030   1.000000
    5      -11.580593   1.000000
    6      -11.244911   1.000000
    7      -11.173187   1.000000
    8      -10.862375   1.000000
    9      -10.730620   1.000000
   10      -10.703628   1.000000
   11      -10.572893   1.000000
   12      -10.458405   1.000000
   13      -10.284691   1.000000
   14      -10.132987   1.000000
   15       -9.780226   1.000000
   16       -9.304051   1.000000
   17       -9.153825   1.000000
   18       -9.069316   1.000000
   19       -8.868939   1.000000
   20       -8.595250   1.000000
   21       -8.406193   1.000000
   22       -8.193796   1.000000
   23       -8.005892   1.000000
   24       -7.939072   1.000000
   25       -7.590935   1.000000
   26       -7.545576   1.000000
   27       -7.471685   1.000000
   28       -7.262405   1.000000
   29       -7.042843   1.000000
   30       -6.532818   1.000000
   31       -6.241437   1.000000
   32       -6.153313   1.000000
   33       -6.121669   1.000000
   34       -6.028214   1.000000
   35       -5.874266   1.000000
   36       -5.804224   1.000000
   37       -5.558069   1.000000
   38       -5.459667   1.000000
   39       -5.339847   1.000000
   40       -5.269325   1.000000
   41       -5.164656   1.000000
   42       -5.103179   1.000000
   43       -4.965412   1.000000
   44       -4.839630   1.000000
   45       -4.786121   1.000000
   46       -4.725666   1.000000
   47       -4.616075   1.000000
   48       -4.550116   1.000000
   49       -4.508475   1.000000
   50       -4.353947   1.000000
   51       -4.252244   1.000000
   52       -4.181901   1.000000
   53       -4.162641   1.000000
   54       -3.991358   1.000000
   55       -3.941490   1.000000
   56       -3.895072   1.000000
   57       -3.831117   1.000000
   58       -3.807786   1.000000
   59       -3.731573   1.000000
   60       -3.666947   1.000000
   61       -3.604865   1.000000
   62       -3.490710   1.000000
   63       -3.386088   1.000000
   64       -3.320094   1.000000
   65       -3.254246   1.000000
   66       -3.130094   1.000000
   67       -2.945919   1.000000
   68       -2.884250   1.000000
   69       -2.758363   1.000000
   70       -2.658934   1.000000
   71       -2.528538   1.000000
   72       -2.352867   1.000000
   73       -2.243294   1.000000
   74       -2.164012   1.000000
   75       -2.057201   1.000000
   76       -1.764742   1.000000
   77       -1.649881   1.000000
   78       -1.559211   1.000000
   79       -1.505943   1.000000
   80       -1.338973   1.000000
   81       -1.304568   1.000000
   82       -1.116661   1.000000
   83       -1.048810   1.000000
   84       -0.830631   1.000011
   85       -0.546163   1.009757
   86       -0.402164   1.035448
   87       -0.316127   0.986512
   88       -0.190366   0.631632
   89       -0.055011   0.119605
   90        0.022657  -0.012661
   91        0.095791  -0.035121
   92        0.161199  -0.023060
   93        0.258058  -0.006029
   94        0.281776  -0.003931
   95        0.408218  -0.000228
   96        0.487666  -0.000024
   97        0.526246  -0.000007
   98        0.562907  -0.000002
   99        0.647226  -0.000000
  100        0.732401  -0.000000
  101        0.818051  -0.000000
  102        0.881648  -0.000000
  103        0.983912  -0.000000
  104        1.141323  -0.000000
  105        1.207372  -0.000000
  106        1.210809  -0.000000
  107        1.259961  -0.000000
  108        1.307220  -0.000000
  109        1.382034  -0.000000
  110        1.456678  -0.000000
  111        1.625929  -0.000000
  112        1.692477  -0.000000
  113        1.858652  -0.000000
  114        3.851703  -0.000000

  0.2222222E+00  0.3922785E-15  0.3630220E-15  0.6734007E-02
    1      -13.860304   1.000000
    2      -12.811828   1.000000
    3      -12.608207   1.000000
    4      -11.826369   1.000000
    5      -11.550807   1.000000
    6      -11.312498   1.000000
    7      -11.164592   1.000000
    8      -10.879026   1.000000
    9      -10.729056   1.000000
   10      -10.697483   1.000000
   11      -10.549684   1.000000
   12      -10.431703   1.000000
   13      -10.218689   1.000000
   14      -10.051560   1.000000
   15       -9.795007   1.000000
   16       -9.376112   1.000000
   17       -9.130609   1.000000
   18       -9.059041   1.000000
   19       -8.856406   1.000000
   20       -8.706192   1.000000
   21       -8.505791   1.000000
   22       -8.179763   1.000000
   23       -8.022418   1.000000
   24       -7.873673   1.000000
   25       -7.691210   1.000000
   26       -7.533280   1.000000
   27       -7.507916   1.000000
   28       -7.310994   1.000000
   29       -6.978633   1.000000
   30       -6.513070   1.000000
   31       -6.190372   1.000000
   32       -6.128613   1.000000
   33       -6.071017   1.000000
   34       -5.968947   1.000000
   35       -5.832009   1.000000
   36       -5.795314   1.000000
   37       -5.573161   1.000000
   38       -5.448908   1.000000
   39       -5.390878   1.000000
   40       -5.209776   1.000000
   41       -5.133458   1.000000
   42       -5.052853   1.000000
   43       -4.950663   1.000000
   44       -4.872478   1.000000
   45       -4.855382   1.000000
   46       -4.709381   1.000000
   47       -4.628054   1.000000
   48       -4.516410   1.000000
   49       -4.448427   1.000000
   50       -4.365983   1.000000
   51       -4.231998   1.000000
   52       -4.184041   1.000000
   53       -4.126212   1.000000
   54       -4.023146   1.000000
   55       -3.948793   1.000000
   56       -3.907132   1.000000
   57       -3.828338   1.000000
   58       -3.817591   1.000000
   59       -3.712616   1.000000
   60       -3.685474   1.000000
   61       -3.576109   1.000000
   62       -3.541431   1.000000
   63       -3.469316   1.000000
   64       -3.346318   1.000000
   65       -3.244192   1.000000
   66       -3.156690   1.000000
   67       -2.922626   1.000000
   68       -2.853490   1.000000
   69       -2.759175   1.000000
   70       -2.624996   1.000000
   71       -2.577423   1.000000
   72       -2.322893   1.000000
   73       -2.205746   1.000000
   74       -2.173372   1.000000
   75       -2.047043   1.000000
   76       -1.849956   1.000000
   77       -1.617713   1.000000
   78       -1.539250   1.000000
   79       -1.497871   1.000000
   80       -1.334145   1.000000
   81       -1.165648   1.000000
   82       -1.095871   1.000000
   83       -1.008144   1.000000
   84       -0.927578   1.000000
   85       -0.553109   1.008759
   86       -0.377325   1.032255
   87       -0.363221   1.027260
   88       -0.160605   0.507525
   89       -0.087636   0.218880
   90       -0.002116   0.014281
   91        0.090833  -0.035375
   92        0.166712  -0.021790
   93        0.230886  -0.009406
   94        0.298321  -0.002857
   95        0.373156  -0.000550
   96        0.449994  -0.000073
   97        0.505640  -0.000014
   98        0.610562  -0.000000
   99        0.688279  -0.000000
  100        0.733741  -0.000000
  101        0.819523  -0.000000
  102        0.964833  -0.000000
  103        1.054591  -0.000000
  104        1.163415  -0.000000
  105        1.217641  -0.000000
  106        1.235960  -0.000000
  107        1.313356  -0.000000
  108        1.341701  -0.000000
  109        1.398905  -0.000000
  110        1.458678  -0.000000
  111        1.534430  -0.000000
  112        1.636466  -0.000000
  113        1.780743  -0.000000
  114        1.918876  -0.000000

  0.3333333E+00  0.3713828E-15  0.3468587E-15  0.6734007E-02
    1      -13.754582   1.000000
    2      -13.019315   1.000000
    3      -12.548786   1.000000
    4      -11.867159   1.000000
    5      -11.535103   1.000000
    6      -11.315795   1.000000
    7      -11.151534   1.000000
    8      -10.897597   1.000000
    9      -10.729085   1.000000
   10      -10.686637   1.000000
   11      -10.526917   1.000000
   12      -10.406020   1.000000
   13      -10.153553   1.000000
   14       -9.927833   1.000000
   15       -9.823728   1.000000
   16       -9.479820   1.000000
   17       -9.086732   1.000000
   18       -9.030988   1.000000
   19       -8.874148   1.000000
   20       -8.758422   1.000000
   21       -8.654112   1.000000
   22       -8.182319   1.000000
   23       -8.095760   1.000000
   24       -7.958516   1.000000
   25       -7.605396   1.000000
   26       -7.550059   1.000000
   27       -7.434523   1.000000
   28       -7.306059   1.000000
   29       -6.989594   1.000000
   30       -6.495554   1.000000
   31       -6.317103   1.000000
   32       -6.125711   1.000000
   33       -6.010329   1.000000
   34       -5.865070   1.000000
   35       -5.794867   1.000000
   36       -5.736418   1.000000
   37       -5.552568   1.000000
   38       -5.422757   1.000000
   39       -5.367872   1.000000
   40       -5.192231   1.000000
   41       -5.109202   1.000000
   42       -5.033098   1.000000
   43       -4.961899   1.000000
   44       -4.906981   1.000000
   45       -4.781137   1.000000
   46       -4.702394   1.000000
   47       -4.607713   1.000000
   48       -4.493047   1.000000
   49       -4.418962   1.000000
   50       -4.384271   1.000000
   51       -4.243294   1.000000
   52       -4.197440   1.000000
   53       -4.130563   1.000000
   54       -4.067736   1.000000
   55       -3.973021   1.000000
   56       -3.914011   1.000000
   57       -3.846861   1.000000
   58       -3.768189   1.000000
   59       -3.706350   1.000000
   60       -3.656689   1.000000
   61       -3.585869   1.000000
   62       -3.550995   1.000000
   63       -3.530602   1.000000
   64       -3.353366   1.000000
   65       -3.250165   1.000000
   66       -3.164020   1.000000
   67       -2.940231   1.000000
   68       -2.847561   1.000000
   69       -2.805944   1.000000
   70       -2.632436   1.000000
   71       -2.550431   1.000000
   72       -2.373495   1.000000
   73       -2.161870   1.000000
   74       -2.128869   1.000000
   75       -2.034784   1.000000
   76       -1.857536   1.000000
   77       -1.617356   1.000000
   78       -1.547511   1.000000
   79       -1.460582   1.000000
   80       -1.333774   1.000000
   81       -1.167610   1.000000
   82       -1.024410   1.000000
   83       -1.007631   1.000000
   84       -0.798252   1.000030
   85       -0.554822   1.008524
   86       -0.424592   1.034015
   87       -0.391991   1.034879
   88       -0.179877   0.588525
   89       -0.118208   0.331997
   90       -0.084666   0.208837
   91       -0.008453   0.023311
   92        0.171011  -0.020810
   93        0.251295  -0.006765
   94        0.361676  -0.000724
   95        0.395729  -0.000314
   96        0.434019  -0.000114
   97        0.496124  -0.000019
   98        0.665673  -0.000000
   99        0.727052  -0.000000
  100        0.784383  -0.000000
  101        0.845322  -0.000000
  102        1.027301  -0.000000
  103        1.122366  -0.000000
  104        1.139871  -0.000000
  105        1.206330  -0.000000
  106        1.266978  -0.000000
  107        1.334995  -0.000000
  108        1.384301  -0.000000
  109        1.462196  -0.000000
  110        1.523433  -0.000000
  111        1.558651  -0.000000
  112        1.613876  -0.000000
  113        1.721275  -0.000000
  114        1.896624  -0.000000

  0.4444444E+00  0.3870091E-15  0.3932070E-15  0.6734007E-02
    1      -13.646666   1.000000
    2      -13.190766   1.000000
    3      -12.478451   1.000000
    4      -11.949953   1.000000
    5      -11.514533   1.000000
    6      -11.301508   1.000000
    7      -11.142785   1.000000
    8      -10.909069   1.000000
    9      -10.729481   1.000000
   10      -10.678241   1.000000
   11      -10.513885   1.000000
   12      -10.392783   1.000000
   13      -10.106269   1.000000
   14       -9.854501   1.000000
   15       -9.783423   1.000000
   16       -9.604587   1.000000
   17       -9.022541   1.000000
   18       -8.998258   1.000000
   19       -8.956172   1.000000
   20       -8.806678   1.000000
   21       -8.666223   1.000000
   22       -8.267315   1.000000
   23       -8.171962   1.000000
   24       -7.960416   1.000000
   25       -7.587491   1.000000
   26       -7.517527   1.000000
   27       -7.421591   1.000000
   28       -7.145911   1.000000
   29       -7.027533   1.000000
   30       -6.565483   1.000000
   31       -6.464385   1.000000
   32       -6.118888   1.000000
   33       -5.969672   1.000000
   34       -5.795841   1.000000
   35       -5.726801   1.000000
   36       -5.688244   1.000000
   37       -5.533622   1.000000
   38       -5.402896   1.000000
   39       -5.307016   1.000000
   40       -5.247531   1.000000
   41       -5.110178   1.000000
   42       -5.063304   1.000000
   43       -4.949930   1.000000
   44       -4.876048   1.000000
   45       -4.738229   1.000000
   46       -4.637405   1.000000
   47       -4.575204   1.000000
   48       -4.499768   1.000000
   49       -4.432766   1.000000
   50       -4.338473   1.000000
   51       -4.273791   1.000000
   52       -4.245161   1.000000
   53       -4.208569   1.000000
   54       -4.053403   1.000000
   55       -4.010288   1.000000
   56       -3.913781   1.000000
   57       -3.836429   1.000000
   58       -3.777303   1.000000
   59       -3.710176   1.000000
   60       -3.605168   1.000000
   61       -3.569155   1.000000
   62       -3.541662   1.000000
   63       -3.512292   1.000000
   64       -3.378012   1.000000
   65       -3.276841   1.000000
   66       -3.144963   1.000000
   67       -2.970862   1.000000
   68       -2.896004   1.000000
   69       -2.841826   1.000000
   70       -2.625620   1.000000
   71       -2.533637   1.000000
   72       -2.418953   1.000000
   73       -2.133115   1.000000
   74       -2.084392   1.000000
   75       -2.044939   1.000000
   76       -1.787161   1.000000
   77       -1.635057   1.000000
   78       -1.571456   1.000000
   79       -1.453995   1.000000
   80       -1.317117   1.000000
   81       -1.238132   1.000000
   82       -0.986255   1.000000
   83       -0.894060   1.000001
   84       -0.695938   1.000486
   85       -0.571837   1.006443
   86       -0.484948   1.021657
   87       -0.361318   1.026372
   88       -0.282601   0.928304
   89       -0.184790   0.608838
   90       -0.083322   0.204355
   91        0.008860   0.000763
   92        0.146907  -0.026357
   93        0.200807  -0.014502
   94        0.307827  -0.002361
   95        0.367906  -0.000624
   96        0.509290  -0.000012
   97        0.551384  -0.000003
   98        0.673813  -0.000000
   99        0.789234  -0.000000
  100        0.890187  -0.000000
  101        0.954440  -0.000000
  102        1.027421  -0.000000
  103        1.077980  -0.000000
  104        1.174212  -0.000000
  105        1.215703  -0.000000
  106        1.296278  -0.000000
  107        1.356039  -0.000000
  108        1.394996  -0.000000
  109        1.451418  -0.000000
  110        1.505884  -0.000000
  111        1.613944  -0.000000
  112        1.714748  -0.000000
  113        1.799156  -0.000000
  114        1.915258  -0.000000

  0.3742002E-15  0.9090909E-01  0.3596334E-15  0.6734007E-02
    1      -13.920652   1.000000
    2      -12.722329   1.000000
    3      -12.413641   1.000000
    4      -11.918657   1.000000
    5      -11.576101   1.000000
    6      -11.348017   1.000000
    7      -11.198998   1.000000
    8      -11.081287   1.000000
    9      -10.847297   1.000000
   10      -10.611873   1.000000
   11      -10.474629   1.000000
   12      -10.342694   1.000000
   13      -10.276770   1.000000
   14      -10.233375   1.000000
   15       -9.667201   1.000000
   16       -9.454639   1.000000
   17       -9.117038   1.000000
   18       -8.998149   1.000000
   19       -8.781003   1.000000
   20       -8.539765   1.000000
   21       -8.420326   1.000000
   22       -8.137251   1.000000
   23       -8.021714   1.000000
   24       -7.905876   1.000000
   25       -7.581901   1.000000
   26       -7.491222   1.000000
   27       -7.305160   1.000000
   28       -7.145927   1.000000
   29       -7.080119   1.000000
   30       -6.542882   1.000000
   31       -6.298692   1.000000
   32       -6.198287   1.000000
   33       -6.137357   1.000000
   34       -6.041840   1.000000
   35       -5.879275   1.000000
   36       -5.795418   1.000000
   37       -5.559563   1.000000
   38       -5.426979   1.000000
   39       -5.376866   1.000000
   40       -5.290916   1.000000
   41       -5.196092   1.000000
   42       -5.076584   1.000000
   43       -4.999278   1.000000
   44       -4.863256   1.000000
   45       -4.815902   1.000000
   46       -4.768442   1.000000
   47       -4.676558   1.000000
   48       -4.594305   1.000000
   49       -4.525411   1.000000
   50       -4.370640   1.000000
   51       -4.321782   1.000000
   52       -4.217729   1.000000
   53       -4.173577   1.000000
   54       -4.102557   1.000000
   55       -3.985148   1.000000
   56       -3.899323   1.000000
   57       -3.867491   1.000000
   58       -3.781321   1.000000
   59       -3.682674   1.000000
   60       -3.624740   1.000000
   61       -3.529382   1.000000
   62       -3.475964   1.000000
   63       -3.415327   1.000000
   64       -3.297116   1.000000
   65       -3.211951   1.000000
   66       -3.126987   1.000000
   67       -2.959492   1.000000
   68       -2.918567   1.000000
   69       -2.767776   1.000000
   70       -2.706422   1.000000
   71       -2.476825   1.000000
   72       -2.390701   1.000000
   73       -2.280676   1.000000
   74       -2.140961   1.000000
   75       -1.941423   1.000000
   76       -1.753253   1.000000
   77       -1.663917   1.000000
   78       -1.598164   1.000000
   79       -1.501159   1.000000
   80       -1.462323   1.000000
   81       -1.299906   1.000000
   82       -1.110074   1.000000
   83       -1.037616   1.000000
   84       -0.789184   1.000039
   85       -0.673356   1.000832
   86       -0.448233   1.029935
   87       -0.372472   1.030835
   88       -0.263840   0.883553
   89       -0.123779   0.354196
   90       -0.000931   0.012693
   91        0.058857  -0.032037
   92        0.132683  -0.029496
   93        0.221438  -0.010852
   94        0.315085  -0.002033
   95        0.437104  -0.000105
   96        0.485283  -0.000026
   97        0.600337  -0.000001
   98        0.634630  -0.000000
   99        0.689893  -0.000000
  100        0.771737  -0.000000
  101        0.813717  -0.000000
  102        0.894080  -0.000000
  103        0.983899  -0.000000
  104        1.122955  -0.000000
  105        1.177060  -0.000000
  106        1.229798  -0.000000
  107        1.279709  -0.000000
  108        1.295906  -0.000000
  109        1.374834  -0.000000
  110        1.432187  -0.000000
  111        1.578564  -0.000000
  112        1.680151  -0.000000
  113        1.732413  -0.000000
  114        1.896609  -0.000000

  0.1111111E+00  0.9090909E-01  0.4822234E-15  0.6734007E-02
    1      -13.877984   1.000000
    2      -12.721641   1.000000
    3      -12.554766   1.000000
    4      -11.836696   1.000000
    5      -11.548442   1.000000
    6      -11.359173   1.000000
    7      -11.269021   1.000000
    8      -11.082069   1.000000
    9      -10.815671   1.000000
   10      -10.603499   1.000000
   11      -10.448563   1.000000
   12      -10.334067   1.000000
   13      -10.244500   1.000000
   14      -10.213922   1.000000
   15       -9.664084   1.000000
   16       -9.472218   1.000000
   17       -9.120852   1.000000
   18       -8.993178   1.000000
   19       -8.790200   1.000000
   20       -8.607949   1.000000
   21       -8.425524   1.000000
   22       -8.195180   1.000000
   23       -7.990705   1.000000
   24       -7.860212   1.000000
   25       -7.604373   1.000000
   26       -7.581358   1.000000
   27       -7.374320   1.000000
   28       -7.144710   1.000000
   29       -7.003781   1.000000
   30       -6.546464   1.000000
   31       -6.242188   1.000000
   32       -6.159096   1.000000
   33       -6.104526   1.000000
   34       -6.011710   1.000000
   35       -5.865874   1.000000
   36       -5.792242   1.000000
   37       -5.587838   1.000000
   38       -5.423320   1.000000
   39       -5.332459   1.000000
   40       -5.281026   1.000000
   41       -5.166446   1.000000
   42       -5.071583   1.000000
   43       -5.007446   1.000000
   44       -4.930945   1.000000
   45       -4.831906   1.000000
   46       -4.746947   1.000000
   47       -4.672516   1.000000
   48       -4.561090   1.000000
   49       -4.486421   1.000000
   50       -4.355058   1.000000
   51       -4.294201   1.000000
   52       -4.232500   1.000000
   53       -4.159225   1.000000
   54       -4.083793   1.000000
   55       -4.004661   1.000000
   56       -3.918290   1.000000
   57       -3.852943   1.000000
   58       -3.780452   1.000000
   59       -3.715394   1.000000
   60       -3.620431   1.000000
   61       -3.547659   1.000000
   62       -3.520813   1.000000
   63       -3.423880   1.000000
   64       -3.355327   1.000000
   65       -3.217616   1.000000
   66       -3.119780   1.000000
   67       -2.946054   1.000000
   68       -2.852847   1.000000
   69       -2.745785   1.000000
   70       -2.714516   1.000000
   71       -2.567156   1.000000
   72       -2.371273   1.000000
   73       -2.231685   1.000000
   74       -2.133399   1.000000
   75       -2.020277   1.000000
   76       -1.779121   1.000000
   77       -1.638794   1.000000
   78       -1.573977   1.000000
   79       -1.521965   1.000000
   80       -1.339759   1.000000
   81       -1.254540   1.000000
   82       -1.135353   1.000000
   83       -1.031669   1.000000
   84       -0.843056   1.000007
   85       -0.634532   1.001958
   86       -0.447935   1.029996
   87       -0.399513   1.035386
   88       -0.243731   0.825875
   89       -0.116335   0.324624
   90       -0.025914   0.053112
   91        0.063722  -0.033218
   92        0.127819  -0.030496
   93        0.242186  -0.007865
   94        0.324502  -0.001667
   95        0.406926  -0.000236
   96        0.507685  -0.000013
   97        0.552374  -0.000003
   98        0.630839  -0.000000
   99        0.702907  -0.000000
  100        0.779277  -0.000000
  101        0.804922  -0.000000
  102        0.929308  -0.000000
  103        1.024296  -0.000000
  104        1.147011  -0.000000
  105        1.205937  -0.000000
  106        1.258488  -0.000000
  107        1.290835  -0.000000
  108        1.307261  -0.000000
  109        1.389849  -0.000000
  110        1.435813  -0.000000
  111        1.479000  -0.000000
  112        1.606594  -0.000000
  113        1.723447  -0.000000
  114        1.869835  -0.000000

  0.2222222E+00  0.9090909E-01  0.3065600E-15  0.6734007E-02
    1      -13.792489   1.000000
    2      -12.870588   1.000000
    3      -12.568323   1.000000
    4      -11.814689   1.000000
    5      -11.528097   1.000000
    6      -11.376722   1.000000
    7      -11.305110   1.000000
    8      -11.090108   1.000000
    9      -10.757808   1.000000
   10      -10.590344   1.000000
   11      -10.431138   1.000000
   12      -10.328806   1.000000
   13      -10.193261   1.000000
   14      -10.161217   1.000000
   15       -9.680658   1.000000
   16       -9.476326   1.000000
   17       -9.154186   1.000000
   18       -8.960494   1.000000
   19       -8.799453   1.000000
   20       -8.690752   1.000000
   21       -8.455061   1.000000
   22       -8.285535   1.000000
   23       -8.011260   1.000000
   24       -7.891299   1.000000
   25       -7.607220   1.000000
   26       -7.574134   1.000000
   27       -7.363247   1.000000
   28       -7.158414   1.000000
   29       -6.981408   1.000000
   30       -6.555283   1.000000
   31       -6.242284   1.000000
   32       -6.124604   1.000000
   33       -6.028989   1.000000
   34       -5.978434   1.000000
   35       -5.858343   1.000000
   36       -5.749952   1.000000
   37       -5.550660   1.000000
   38       -5.418498   1.000000
   39       -5.372478   1.000000
   40       -5.260015   1.000000
   41       -5.116296   1.000000
   42       -5.025878   1.000000
   43       -4.988296   1.000000
   44       -4.966044   1.000000
   45       -4.837913   1.000000
   46       -4.732109   1.000000
   47       -4.639647   1.000000
   48       -4.546157   1.000000
   49       -4.444245   1.000000
   50       -4.357692   1.000000
   51       -4.292855   1.000000
   52       -4.235810   1.000000
   53       -4.153361   1.000000
   54       -4.088387   1.000000
   55       -3.980981   1.000000
   56       -3.917086   1.000000
   57       -3.845075   1.000000
   58       -3.797987   1.000000
   59       -3.730309   1.000000
   60       -3.632967   1.000000
   61       -3.588819   1.000000
   62       -3.546143   1.000000
   63       -3.459670   1.000000
   64       -3.385701   1.000000
   65       -3.234807   1.000000
   66       -3.110049   1.000000
   67       -2.959170   1.000000
   68       -2.844420   1.000000
   69       -2.726276   1.000000
   70       -2.690122   1.000000
   71       -2.634650   1.000000
   72       -2.329161   1.000000
   73       -2.205327   1.000000
   74       -2.143735   1.000000
   75       -2.067235   1.000000
   76       -1.811459   1.000000
   77       -1.632827   1.000000
   78       -1.610073   1.000000
   79       -1.463212   1.000000
   80       -1.297112   1.000000
   81       -1.156547   1.000000
   82       -1.081960   1.000000
   83       -0.989191   1.000000
   84       -0.890256   1.000001
   85       -0.631638   1.002080
   86       -0.500336   1.018220
   87       -0.410524   1.035290
   88       -0.201416   0.675759
   89       -0.143936   0.437186
   90       -0.010692   0.026725