   70   70    1    1
  0.2230945E+02  0.1053953E-08  0.6141200E-09  0.2412750E-08  0.5000000E-15
   1.0000000000000000E-004
  CAR 
 Name                                    
    265     23    168

  0.3742002E-15  0.3742002E-15  0.1262379E-14  0.2222222E-01
    1      -13.989436   1.000000
    2      -12.998838   1.000000
    3      -12.848758   1.000000
    4      -12.431634   1.000000
    5      -11.883541   1.000000
    6      -11.682214   1.000000
    7      -11.658715   1.000000
    8      -11.624649   1.000000
    9      -11.481325   1.000000
   10      -11.254941   1.000000
   11      -11.123061   1.000000
   12      -11.018016   1.000000
   13      -10.857799   1.000000
   14      -10.442166   1.000000
   15      -10.244738   1.000000
   16      -10.214127   1.000000
   17      -10.122777   1.000000
   18      -10.037032   1.000000
   19       -9.879855   1.000000
   20       -9.677723   1.000000
   21       -9.611236   1.000000
   22       -9.482825   1.000000
   23       -9.274580   1.000000
   24       -9.010538   1.000000
   25       -8.920722   1.000000
   26       -8.747898   1.000000
   27       -8.537632   1.000000
   28       -8.353924   1.000000
   29       -8.253666   1.000000
   30       -8.142170   1.000000
   31       -8.060651   1.000000
   32       -7.824739   1.000000
   33       -7.540293   1.000000
   34       -7.368140   1.000000
   35       -7.203632   1.000000
   36       -7.102780   1.000000
   37       -7.061544   1.000000
   38       -6.825371   1.000000
   39       -6.779057   1.000000
   40       -6.734825   1.000000
   41       -6.676487   1.000000
   42       -6.603133   1.000000
   43       -6.495471   1.000000
   44       -6.428291   1.000000
   45       -6.368941   1.000000
   46       -6.292135   1.000000
   47       -6.129730   1.000000
   48       -6.041004   1.000000
   49       -6.022345   1.000000
   50       -5.853461   1.000000
   51       -5.792804   1.000000
   52       -5.759561   1.000000
   53       -5.688804   1.000000
   54       -5.624170   1.000000
   55       -5.564662   1.000000
   56       -5.486345   1.000000
   57       -5.362764   1.000000
   58       -5.217754   1.000000
   59       -5.192094   1.000000
   60       -5.121912   1.000000
   61       -5.014772   1.000000
   62       -4.903924   1.000000
   63       -4.745027   1.000000
   64       -4.715340   1.000000
   65       -4.641339   1.000000
   66       -4.592279   1.000000
   67       -4.551235   1.000000
   68       -4.514273   1.000000
   69       -4.492236   1.000000
   70       -4.460017   1.000000
   71       -4.287056   1.000000
   72       -4.261029   1.000000
   73       -4.227737   1.000000
   74       -4.200645   1.000000
   75       -4.050359   1.000000
   76       -4.006846   1.000000
   77       -3.942359   1.000000
   78       -3.837066   1.000000
   79       -3.757967   1.000000
   80       -3.738769   1.000000
   81       -3.645445   1.000000
   82       -3.613961   1.000000
   83       -3.466496   1.000000
   84       -3.369223   1.000000
   85       -3.356271   1.000000
   86       -3.343428   1.000000
   87       -3.302896   1.000000
   88       -3.247171   1.000000
   89       -3.179482   1.000000
   90       -3.098519   1.000000
   91       -3.056588   1.000000
   92       -2.957669   1.000000
   93       -2.922506   1.000000
   94       -2.833289   1.000000
   95       -2.718506   1.000000
   96       -2.674226   1.000000
   97       -2.664899   1.000000
   98       -2.568660   1.000000
   99       -2.457844   1.000000
  100       -2.432663   1.000000
  101       -2.354931   1.000000
  102       -2.333353   1.000000
  103       -2.316232   1.000000
  104       -2.182673   1.000000
  105       -2.169671   1.000000
  106       -2.123609   1.000000
  107       -2.106565   1.000000
  108       -2.036086   1.000000
  109       -1.996732   1.000000
  110       -1.983700   1.000000
  111       -1.797759   1.000000
  112       -1.785329   1.000000
  113       -1.715064   1.000000
  114       -1.599942   1.000000
  115       -1.405609   1.000000
  116       -1.317212   1.000000
  117       -1.253322   1.000000
  118       -1.140755   1.000000
  119       -1.088733   1.000000
  120       -0.973396   1.000000
  121       -0.941168   1.000000
  122       -0.909544   1.000000
  123       -0.652843   1.000001
  124       -0.531102   1.000044
  125       -0.481777   1.000176
  126       -0.334175   1.004841
  127       -0.303571   1.008165
  128       -0.199328   1.028870
  129       -0.160042   1.035083
  130       -0.053812   0.974504
  131       -0.048168   0.965482
  132       -0.014844   0.896226
  133        0.056465   0.660223
  134        0.175319   0.189009
  135        0.209494   0.093010
  136        0.238650   0.034116
  137        0.247052   0.021004
  138        0.298987  -0.027019
  139        0.365387  -0.033392
  140        0.416611  -0.022721
  141        0.568688  -0.002048
  142        0.649590  -0.000315
  143        0.694829  -0.000094
  144        0.759300  -0.000014
  145        0.839740  -0.000001
  146        0.931319  -0.000000
  147        0.974195  -0.000000
  148        1.043766  -0.000000
  149        1.088500  -0.000000
  150        1.133150  -0.000000
  151        1.168874  -0.000000
  152        1.200557  -0.000000
  153        1.254192  -0.000000
  154        1.257876  -0.000000
  155        1.291601  -0.000000
  156        1.347420  -0.000000
  157        1.362625  -0.000000
  158        1.409121  -0.000000
  159        1.475650  -0.000000
  160        1.530617  -0.000000
  161        1.585064  -0.000000
  162        1.636922  -0.000000
  163        1.672307  -0.000000
  164        1.735892  -0.000000
  165        1.966230  -0.000000
  166        2.026127  -0.000000
  167        2.509811  -0.000000
  168        2.556732  -0.000000

  0.2000000E+00  0.3742002E-15  0.1262379E-14  0.4444444E-01
    1      -13.948949   1.000000
    2      -13.241766   1.000000
    3      -12.718825   1.000000
    4      -12.205804   1.000000
    5      -11.999875   1.000000
    6      -11.873220   1.000000
    7      -11.698133   1.000000
    8      -11.450543   1.000000
    9      -11.285487   1.000000
   10      -11.262281   1.000000
   11      -11.087373   1.000000
   12      -10.940432   1.000000
   13      -10.849033   1.000000
   14      -10.602873   1.000000
   15      -10.507724   1.000000
   16      -10.340534   1.000000
   17      -10.223334   1.000000
   18      -10.040638   1.000000
   19       -9.738464   1.000000
   20       -9.663667   1.000000
   21       -9.458004   1.000000
   22       -9.436014   1.000000
   23       -9.313256   1.000000
   24       -9.060998   1.000000
   25       -8.967902   1.000000
   26       -8.728963   1.000000
   27       -8.332937   1.000000
   28       -8.247419   1.000000
   29       -8.118214   1.000000
   30       -8.082919   1.000000
   31       -8.034708   1.000000
   32       -7.994777   1.000000
   33       -7.486068   1.000000
   34       -7.424626   1.000000
   35       -7.369434   1.000000
   36       -7.176775   1.000000
   37       -7.118628   1.000000
   38       -6.947443   1.000000
   39       -6.821424   1.000000
   40       -6.758843   1.000000
   41       -6.668561   1.000000
   42       -6.618990   1.000000
   43       -6.501598   1.000000
   44       -6.438771   1.000000
   45       -6.360013   1.000000
   46       -6.251388   1.000000
   47       -6.079674   1.000000
   48       -6.016808   1.000000
   49       -5.966450   1.000000
   50       -5.908806   1.000000
   51       -5.765536   1.000000
   52       -5.729020   1.000000
   53       -5.661397   1.000000
   54       -5.538253   1.000000
   55       -5.508772   1.000000
   56       -5.403267   1.000000
   57       -5.373725   1.000000
   58       -5.274385   1.000000
   59       -5.186795   1.000000
   60       -5.150640   1.000000
   61       -5.028383   1.000000
   62       -4.867651   1.000000
   63       -4.813433   1.000000
   64       -4.705144   1.000000
   65       -4.682810   1.000000
   66       -4.593751   1.000000
   67       -4.538246   1.000000
   68       -4.484698   1.000000
   69       -4.444847   1.000000
   70       -4.397402   1.000000
   71       -4.376021   1.000000
   72       -4.260961   1.000000
   73       -4.245860   1.000000
   74       -4.137794   1.000000
   75       -4.048912   1.000000
   76       -4.008098   1.000000
   77       -3.878218   1.000000
   78       -3.865691   1.000000
   79       -3.833143   1.000000
   80       -3.750441   1.000000
   81       -3.657068   1.000000
   82       -3.549965   1.000000
   83       -3.466363   1.000000
   84       -3.441018   1.000000
   85       -3.406656   1.000000
   86       -3.325249   1.000000
   87       -3.316892   1.000000
   88       -3.255367   1.000000
   89       -3.160242   1.000000
   90       -3.122318   1.000000
   91       -3.043897   1.000000
   92       -3.011579   1.000000
   93       -2.994812   1.000000
   94       -2.859919   1.000000
   95       -2.714689   1.000000
   96       -2.690932   1.000000
   97       -2.578940   1.000000
   98       -2.547484   1.000000
   99       -2.491483   1.000000
  100       -2.457217   1.000000
  101       -2.353836   1.000000
  102       -2.297455   1.000000
  103       -2.255628   1.000000
  104       -2.205055   1.000000
  105       -2.161568   1.000000
  106       -2.082942   1.000000
  107       -2.056664   1.000000
  108       -2.002106   1.000000
  109       -1.974728   1.000000
  110       -1.919566   1.000000
  111       -1.820686   1.000000
  112       -1.750598   1.000000
  113       -1.642762   1.000000
  114       -1.591248   1.000000
  115       -1.407702   1.000000
  116       -1.345217   1.000000
  117       -1.291008   1.000000
  118       -1.168945   1.000000
  119       -1.115542   1.000000
  120       -1.008928   1.000000
  121       -0.981943   1.000000
  122       -0.924590   1.000000
  123       -0.703517   1.000000
  124       -0.576126   1.000011
  125       -0.458516   1.000322
  126       -0.365250   1.002680
  127       -0.330554   1.005167
  128       -0.257885   1.015811
  129       -0.211635   1.026124
  130       -0.139323   1.035002
  131       -0.097638   1.020950
  132       -0.022016   0.913487
  133        0.039853   0.724249
  134        0.143628   0.301289
  135        0.215567   0.078984
  136        0.262960   0.000592
  137        0.281334  -0.016416
  138        0.383007  -0.030246
  139        0.414770  -0.023147
  140        0.476132  -0.010732
  141        0.537712  -0.003786
  142        0.666180  -0.000205
  143        0.713621  -0.000055
  144        0.795714  -0.000004
  145        0.906564  -0.000000
  146        0.962332  -0.000000
  147        0.985733  -0.000000
  148        1.022511  -0.000000
  149        1.066355  -0.000000
  150        1.105616  -0.000000
  151        1.159887  -0.000000
  152        1.204236  -0.000000
  153        1.282915  -0.000000
  154        1.298284  -0.000000
  155        1.331505  -0.000000
  156        1.353733  -0.000000
  157        1.372446  -0.000000
  158        1.411990  -0.000000
  159        1.448447  -0.000000
  160        1.504306  -0.000000
  161        1.603254  -0.000000
  162        1.618728  -0.000000
  163        1.644801  -0.000000
  164        1.814234  -0.000000
  165        1.896730  -0.000000
  166        2.107795  -0.000000
  167        2.295181  -0.000000
  168        2.665746  -0.000000

  0.4000000E+00  0.3742002E-15  0.1262379E-14  0.4444444E-01
    1      -13.847303   1.000000
    2      -13.496009   1.000000
    3      -12.594089   1.000000
    4      -12.265495   1.000000
    5      -11.854943   1.000000
    6      -11.749964   1.000000
    7      -11.725415   1.000000
    8      -11.412042   1.000000
    9      -11.281283   1.000000
   10      -11.176533   1.000000
   11      -11.047189   1.000000
   12      -11.009531   1.000000
   13      -10.840678   1.000000
   14      -10.716983   1.000000
   15      -10.616536   1.000000
   16      -10.500820   1.000000
   17      -10.233995   1.000000
   18      -10.039356   1.000000
   19       -9.992278   1.000000
   20       -9.736899   1.000000
   21       -9.418989   1.000000
   22       -9.361654   1.000000
   23       -9.167890   1.000000
   24       -8.926406   1.000000
   25       -8.885074   1.000000
   26       -8.717382   1.000000
   27       -8.371205   1.000000
   28       -8.149418   1.000000
   29       -7.996884   1.000000
   30       -7.878184   1.000000
   31       -7.854566   1.000000
   32       -7.758422   1.000000
   33       -7.675288   1.000000
   34       -7.629474   1.000000
   35       -7.485036   1.000000
   36       -7.425491   1.000000
   37       -7.266270   1.000000
   38       -7.155686   1.000000
   39       -7.031340   1.000000
   40       -6.776721   1.000000
   41       -6.625857   1.000000
   42       -6.541743   1.000000
   43       -6.494710   1.000000
   44       -6.409799   1.000000
   45       -6.245051   1.000000
   46       -6.144160   1.000000
   47       -6.039360   1.000000
   48       -6.028265   1.000000
   49       -5.948787   1.000000
   50       -5.905800   1.000000
   51       -5.799194   1.000000
   52       -5.697737   1.000000
   53       -5.626304   1.000000
   54       -5.529435   1.000000
   55       -5.504158   1.000000
   56       -5.436358   1.000000
   57       -5.297453   1.000000
   58       -5.227536   1.000000
   59       -5.135562   1.000000
   60       -5.118781   1.000000
   61       -5.054313   1.000000
   62       -4.875962   1.000000
   63       -4.756410   1.000000
   64       -4.729015   1.000000
   65       -4.670871   1.000000
   66       -4.639414   1.000000
   67       -4.543053   1.000000
   68       -4.521039   1.000000
   69       -4.459319   1.000000
   70       -4.386628   1.000000
   71       -4.327728   1.000000
   72       -4.294457   1.000000
   73       -4.133486   1.000000
   74       -4.107014   1.000000
   75       -4.029037   1.000000
   76       -3.968958   1.000000
   77       -3.942412   1.000000
   78       -3.910265   1.000000
   79       -3.852065   1.000000
   80       -3.735005   1.000000
   81       -3.661944   1.000000
   82       -3.580114   1.000000
   83       -3.524528   1.000000
   84       -3.489238   1.000000
   85       -3.443810   1.000000
   86       -3.380169   1.000000
   87       -3.263789   1.000000
   88       -3.244672   1.000000
   89       -3.159046   1.000000
   90       -3.146167   1.000000
   91       -3.116007   1.000000
   92       -2.994901   1.000000
   93       -2.967266   1.000000
   94       -2.908099   1.000000
   95       -2.873045   1.000000
   96       -2.698088   1.000000
   97       -2.615095   1.000000
   98       -2.565812   1.000000
   99       -2.476481   1.000000
  100       -2.390260   1.000000
  101       -2.343438   1.000000
  102       -2.271561   1.000000
  103       -2.256080   1.000000
  104       -2.134456   1.000000
  105       -2.038176   1.000000
  106       -2.021866   1.000000
  107       -1.969635   1.000000
  108       -1.925927   1.000000
  109       -1.898033   1.000000
  110       -1.876581   1.000000
  111       -1.740694   1.000000
  112       -1.687010   1.000000
  113       -1.601624   1.000000
  114       -1.582537   1.000000
  115       -1.516626   1.000000
  116       -1.392048   1.000000
  117       -1.363227   1.000000
  118       -1.241179   1.000000
  119       -1.126383   1.000000
  120       -1.080017   1.000000
  121       -1.033879   1.000000
  122       -0.902345   1.000000
  123       -0.783311   1.000000
  124       -0.671807   1.000000
  125       -0.499684   1.000108
  126       -0.397129   1.001374
  127       -0.368642   1.002503
  128       -0.354366   1.003319
  129       -0.301624   1.008423
  130       -0.239049   1.019835
  131       -0.153120   1.035417
  132       -0.034598   0.940629
  133        0.118166   0.403199
  134        0.162212   0.233044
  135        0.213369   0.083953
  136        0.270296  -0.006995
  137        0.308881  -0.030873
  138        0.398461  -0.026901
  139        0.441348  -0.017212
  140        0.504513  -0.006849
  141        0.637242  -0.000429
  142        0.672695  -0.000172
  143        0.782996  -0.000006
  144        0.833391  -0.000001
  145        0.889686  -0.000000
  146        0.910392  -0.000000
  147        1.031057  -0.000000
  148        1.066589  -0.000000
  149        1.145469  -0.000000
  150        1.170791  -0.000000
  151        1.195676  -0.000000
  152        1.221918  -0.000000
  153        1.242564  -0.000000
  154        1.303179  -0.000000
  155        1.345285  -0.000000
  156        1.370721  -0.000000
  157        1.394277  -0.000000
  158        1.460740  -0.000000
  159        1.508711  -0.000000
  160        1.577199  -0.000000
  161        1.651167  -0.000000
  162        1.712502  -0.000000
  163        1.736808  -0.000000
  164        1.895677  -0.000000
  165        2.039386  -0.000000
  166        2.138388  -0.000000
  167        2.221725  -0.000000
  168        2.603749  -0.000000

  0.3742002E-15  0.1111111E+00  0.1262379E-14  0.4444444E-01
    1      -13.943849   1.000000
    2      -12.960026   1.000000
    3      -12.814171   1.000000
    4      -12.401623   1.000000
    5      -11.978196   1.000000
    6      -11.699011   1.000000
    7      -11.644372   1.000000
    8      -11.603320   1.000000
    9      -11.525282   1.000000
   10      -11.275977   1.000000
   11      -11.132036   1.000000
   12      -10.992638   1.000000
   13      -10.884366   1.000000
   14      -10.439238   1.000000
   15      -10.248969   1.000000
   16      -10.199992   1.000000
   17      -10.115919   1.000000
   18      -10.040180   1.000000
   19       -9.852436   1.000000
   20       -9.705801   1.000000
   21       -9.606332   1.000000
   22       -9.482351   1.000000
   23       -9.267562   1.000000
   24       -9.044687   1.000000
   25       -8.936098   1.000000
   26       -8.725681   1.000000
   27       -8.526130   1.000000
   28       -8.358215   1.000000
   29       -8.272318   1.000000
   30       -8.161062   1.000000
   31       -7.913675   1.000000
   32       -7.834408   1.000000
   33       -7.624248   1.000000
   34       -7.402679   1.000000
   35       -7.270177   1.000000
   36       -7.198888   1.000000
   37       -7.030094   1.000000
   38       -6.773247   1.000000
   39       -6.753485   1.000000
   40       -6.716687   1.000000
   41       -6.669836   1.000000
   42       -6.560533   1.000000
   43       -6.476536   1.000000
   44       -6.406298   1.000000
   45       -6.352187   1.000000
   46       -6.291310   1.000000
   47       -6.143247   1.000000
   48       -6.057943   1.000000
   49       -5.978248   1.000000
   50       -5.857071   1.000000
   51       -5.806228   1.000000
   52       -5.753104   1.000000
   53       -5.701542   1.000000
   54       -5.616032   1.000000
   55       -5.537060   1.000000
   56       -5.404872   1.000000
   57       -5.292100   1.000000
   58       -5.241331   1.000000
   59       -5.186891   1.000000
   60       -5.068211   1.000000
   61       -4.993538   1.000000
   62       -4.878088   1.000000
   63       -4.760223   1.000000
   64       -4.716235   1.000000
   65       -4.652637   1.000000
   66       -4.615820   1.000000
   67       -4.569716   1.000000
   68       -4.551985   1.000000
   69       -4.486814   1.000000
   70       -4.412897   1.000000
   71       -4.312873   1.000000
   72       -4.245039   1.000000
   73       -4.210462   1.000000
   74       -4.175859   1.000000
   75       -4.062797   1.000000
   76       -4.008753   1.000000
   77       -3.928710   1.000000
   78       -3.861590   1.000000
   79       -3.813439   1.000000
   80       -3.764100   1.000000
   81       -3.707149   1.000000
   82       -3.620999   1.000000
   83       -3.514683   1.000000
   84       -3.499900   1.000000
   85       -3.400975   1.000000
   86       -3.304408   1.000000
   87       -3.278951   1.000000
   88       -3.227374   1.000000
   89       -3.179838   1.000000
   90       -3.126097   1.000000
   91       -3.076930   1.000000
   92       -3.022517   1.000000
   93       -2.930369   1.000000
   94       -2.846772   1.000000
   95       -2.741072   1.000000
   96       -2.706539   1.000000
   97       -2.645445   1.000000
   98       -2.563658   1.000000
   99       -2.521074   1.000000
  100       -2.428322   1.000000
  101       -2.402851   1.000000
  102       -2.355586   1.000000
  103       -2.299269   1.000000
  104       -2.229346   1.000000
  105       -2.182905   1.000000
  106       -2.162734   1.000000
  107       -2.088861   1.000000
  108       -2.001576   1.000000
  109       -1.940073   1.000000
  110       -1.925803   1.000000
  111       -1.841267   1.000000
  112       -1.732334   1.000000
  113       -1.673552   1.000000
  114       -1.570022   1.000000
  115       -1.436654   1.000000
  116       -1.358686   1.000000
  117       -1.273364   1.000000
  118       -1.192499   1.000000
  119       -1.022886   1.000000
  120       -0.969022   1.000000
  121       -0.928252   1.000000
  122       -0.813112   1.000000
  123       -0.644541   1.000001
  124       -0.573292   1.000012
  125       -0.453469   1.000365
  126       -0.346321   1.003870
  127       -0.296855   1.009082
  128       -0.265710   1.014273
  129       -0.192296   1.030341
  130       -0.174518   1.033484
  131       -0.114673   1.029491
  132        0.038140   0.730598
  133        0.117681   0.405207
  134        0.144257   0.298879
  135        0.223801   0.061459
  136        0.261468   0.002273
  137        0.299131  -0.027085
  138        0.348139  -0.035220
  139        0.441960  -0.017083
  140        0.476717  -0.010639
  141        0.575615  -0.001770
  142        0.647406  -0.000333
  143        0.740368  -0.000025
  144        0.782398  -0.000007
  145        0.845550  -0.000001
  146        0.897578  -0.000000
  147        0.963706  -0.000000
  148        0.998764  -0.000000
  149        1.070745  -0.000000
  150        1.140637  -0.000000
  151        1.152506  -0.000000
  152        1.184853  -0.000000
  153        1.235051  -0.000000
  154        1.255385  -0.000000
  155        1.295668  -0.000000
  156        1.336030  -0.000000
  157        1.369513  -0.000000
  158        1.403900  -0.000000
  159        1.446209  -0.000000
  160        1.456165  -0.000000
  161        1.495781  -0.000000
  162        1.550162  -0.000000
  163        1.575356  -0.000000
  164        1.663920  -0.000000
  165        1.772674  -0.000000
  166        1.904542  -0.000000
  167        1.940429  -0.000000
  168        2.135439  -0.000000

  0.2000000E+00  0.1111111E+00  0.1262379E-14  0.4444444E-01
    1      -13.903790   1.000000
    2      -13.202123   1.000000
    3      -12.682528   1.000000
    4      -12.184302   1.000000
    5      -11.970114   1.000000
    6      -11.959112   1.000000
    7      -11.744020   1.000000
    8      -11.485872   1.000000
    9      -11.299269   1.000000
   10      -11.245969   1.000000
   11      -11.099364   1.000000
   12      -10.917543   1.000000
   13      -10.871302   1.000000
   14      -10.583866   1.000000
   15      -10.506815   1.000000
   16      -10.320110   1.000000
   17      -10.236772   1.000000
   18      -10.049998   1.000000
   19       -9.739147   1.000000
   20       -9.651152   1.000000
   21       -9.478296   1.000000
   22       -9.419470   1.000000
   23       -9.312257   1.000000
   24       -9.065763   1.000000
   25       -8.992548   1.000000
   26       -8.720464   1.000000
   27       -8.338421   1.000000
   28       -8.255526   1.000000
   29       -8.135581   1.000000
   30       -8.088300   1.000000
   31       -8.027346   1.000000
   32       -7.864784   1.000000
   33       -7.572997   1.000000
   34       -7.500564   1.000000
   35       -7.376307   1.000000
   36       -7.224350   1.000000
   37       -7.019972   1.000000
   38       -6.923247   1.000000
   39       -6.834977   1.000000
   40       -6.735734   1.000000
   41       -6.694264   1.000000
   42       -6.619711   1.000000
   43       -6.483146   1.000000
   44       -6.413581   1.000000
   45       -6.370608   1.000000
   46       -6.336787   1.000000
   47       -6.117185   1.000000
   48       -5.982522   1.000000
   49       -5.879526   1.000000
   50       -5.848763   1.000000
   51       -5.772164   1.000000
   52       -5.700687   1.000000
   53       -5.648590   1.000000
   54       -5.541344   1.000000
   55       -5.464718   1.000000
   56       -5.428725   1.000000
   57       -5.338021   1.000000
   58       -5.223611   1.000000
   59       -5.176130   1.000000
   60       -5.117031   1.000000
   61       -5.007424   1.000000
   62       -4.865455   1.000000
   63       -4.792169   1.000000
   64       -4.738257   1.000000
   65       -4.669050   1.000000
   66       -4.586434   1.000000
   67       -4.547883   1.000000
   68       -4.525200   1.000000
   69       -4.455722   1.000000
   70       -4.367530   1.000000
   71       -4.348713   1.000000
   72       -4.306202   1.000000
   73       -4.228653   1.000000
   74       -4.099462   1.000000
   75       -4.056480   1.000000
   76       -4.019198   1.000000
   77       -3.903112   1.000000
   78       -3.893792   1.000000
   79       -3.842925   1.000000
   80       -3.739786   1.000000
   81       -3.684693   1.000000
   82       -3.620979   1.000000
   83       -3.546481   1.000000
   84       -3.494630   1.000000
   85       -3.435964   1.000000
   86       -3.354872   1.000000
   87       -3.279034   1.000000
   88       -3.237382   1.000000
   89       -3.187301   1.000000
   90       -3.139052   1.000000
   91       -3.097366   1.000000
   92       -3.040748   1.000000
   93       -2.989562   1.000000
   94       -2.819677   1.000000
   95       -2.757151   1.000000
   96       -2.690821   1.000000
   97       -2.584984   1.000000
   98       -2.576175   1.000000
   99       -2.485365   1.000000
  100       -2.454330   1.000000
  101       -2.364949   1.000000
  102       -2.348886   1.000000
  103       -2.286032   1.000000
  104       -2.260982   1.000000
  105       -2.215148   1.000000
  106       -2.117256   1.000000
  107       -2.048479   1.000000
  108       -1.956710   1.000000
  109       -1.927930   1.000000
  110       -1.877772   1.000000
  111       -1.802086   1.000000
  112       -1.754919   1.000000
  113       -1.690487   1.000000
  114       -1.522580   1.000000
  115       -1.435903   1.000000
  116       -1.392165   1.000000
  117       -1.275879   1.000000
  118       -1.224909   1.000000
  119       -1.087762   1.000000
  120       -1.027551   1.000000
  121       -0.903554   1.000000
  122       -0.863562   1.000000
  123       -0.691427   1.000000
  124       -0.584397   1.000009
  125       -0.450669   1.000392
  126       -0.389702   1.001614
  127       -0.314902   1.006777
  128       -0.263106   1.014775
  129       -0.244219   1.018692
  130       -0.194248   1.029943
  131       -0.091102   1.016422
  132        0.001998   0.850629
  133        0.099678   0.480721
  134        0.155883   0.255573
  135        0.191668   0.139529
  136        0.262390   0.001228
  137        0.329921  -0.035033
  138        0.381759  -0.030498
  139        0.441676  -0.017143
  140        0.546486  -0.003200
  141        0.578802  -0.001654
  142        0.645160  -0.000352
  143        0.739112  -0.000026
  144        0.790327  -0.000005
  145        0.887043  -0.000000
  146        0.935478  -0.000000
  147        0.988685  -0.000000
  148        1.041347  -0.000000
  149        1.061649  -0.000000
  150        1.129148  -0.000000
  151        1.159717  -0.000000
  152        1.219264  -0.000000
  153        1.250083  -0.000000
  154        1.276495  -0.000000
  155        1.307452  -0.000000
  156        1.338411  -0.000000
  157        1.366469  -0.000000
  158        1.396791  -0.000000
  159        1.440405  -0.000000
  160        1.497540  -0.000000
  161        1.531162  -0.000000
  162        1.577069  -0.000000
  163        1.646027  -0.000000
  164        1.716245  -0.000000
  165        1.811755  -0.000000
  166        1.940795  -0.000000
  167        2.002593  -0.000000
  168        2.189016  -0.000000

  0.4000000E+00  0.1111111E+00  0.1262379E-14  0.4444444E-01
    1      -13.802947   1.000000
    2      -13.454548   1.000000
    3      -12.558574   1.000000
    4      -12.233353   1.000000
    5      -11.945179   1.000000
    6      -11.812589   1.000000
    7      -11.696329   1.000000
    8      -11.439815   1.000000
    9      -11.302518   1.000000
   10      -11.150890   1.000000
   11      -11.043983   1.000000
   12      -11.000324   1.000000
   13      -10.866683   1.000000
   14      -10.694429   1.000000
   15      -10.619868   1.000000
   16      -10.478669   1.000000
   17      -10.244118   1.000000
   18      -10.041281   1.000000
   19       -9.988516   1.000000
   20       -9.749486   1.000000
   21       -9.430237   1.000000
   22       -9.340449   1.000000
   23       -9.167907   1.000000
   24       -8.957804   1.000000
   25       -8.882654   1.000000
   26       -8.705327   1.000000
   27       -8.373002   1.000000
   28       -8.178413   1.000000
   29       -8.003427   1.000000
   30       -7.885955   1.000000
   31       -7.784870   1.000000
   32       -7.742906   1.000000
   33       -7.702503   1.000000
   34       -7.632964   1.000000
   35       -7.495323   1.000000
   36       -7.315889   1.000000
   37       -7.276275   1.000000
   38       -7.182172   1.000000
   39       -7.038791   1.000000
   40       -6.826762   1.000000
   41       -6.708656   1.000000
   42       -6.622500   1.000000
   43       -6.459321   1.000000
   44       -6.364394   1.000000
   45       -6.245814   1.000000
   46       -6.133062   1.000000
   47       -6.031440   1.000000
   48       -6.007379   1.000000
   49       -5.948197   1.000000
   50       -5.910816   1.000000
   51       -5.778419   1.000000