 running on   72 total cores
 distrk:  each k-point on   72 cores,    1 groups
 distr:  one band on    9 cores,    8 groups
 using from now: INCAR     
 vasp.5.4.4.18Apr17-6-g9f103f2a35 (build Dec  7 2020 12:43:57) complex           
 POSCAR found type information on POSCAR  Mo V  B  H 
 POSCAR found :  4 types and      70 ions
 scaLAPACK will be used

 ----------------------------------------------------------------------------- 
|                                                                             |
|  ADVICE TO THIS USER RUNNING 'VASP/VAMP'   (HEAR YOUR MASTER'S VOICE ...):  |
|                                                                             |
|      You enforced a specific xc-type in the INCAR file,                     |
|      a different type was found on the POTCAR file                          |
|          I HOPE YOU KNOW, WHAT YOU ARE  DOING                               |
|                                                                             |
 ----------------------------------------------------------------------------- 

 LDA part: xc-table for Pade appr. of Perdew
 POSCAR, INCAR and KPOINTS ok, starting setup
 resort distribution
 resort distribution
 resort distribution
 resort distribution
 resort distribution
 resort distribution
 resort distribution
 resort distribution
 resort distribution
 resort distribution
 resort distribution
 resort distribution
 resort distribution
 resort distribution
 resort distribution
 resort distribution
 resort distribution
 resort distribution
 resort distribution
 resort distribution
 resort distribution
 resort distribution
 resort distribution
 resort distribution
 resort distribution
 resort distribution
 resort distribution
 resort distribution
 resort distribution
 resort distribution
 resort distribution
 resort distribution
 resort distribution
 resort distribution
 resort distribution
 resort distribution
 resort distribution
 resort distribution
 resort distribution
 resort distribution
 resort distribution
 resort distribution
 resort distribution
 resort distribution
 resort distribution
 resort distribution
 resort distribution
 resort distribution
 resort distribution
 resort distribution
 resort distribution
 resort distribution
 resort distribution
 resort distribution
 resort distribution
 resort distribution
 resort distribution
 resort distribution
 resort distribution
 resort distribution
 resort distribution
 resort distribution
 resort distribution
 resort distribution
 resort distribution
 resort distribution
 resort distribution
 resort distribution
 resort distribution
 resort distribution
 resort distribution
 resort distribution
 FFT: planning ...
 WAVECAR not read
 augmentation electrons   265.05813919849783     
 soft         electrons   0.0000000000000000     
 augmentation electrons   265.05813919849783     
 soft         electrons   0.0000000000000000     
 augmentation electrons   265.05813919849783     
 soft         electrons   0.0000000000000000     
 augmentation electrons   265.05813919849783     
 soft         electrons   0.0000000000000000     
 augmentation electrons   265.05813919849783     
 soft         electrons   0.0000000000000000     
 augmentation electrons   265.05813919849783     
 soft         electrons   0.0000000000000000     
 augmentation electrons   265.05813919849783     
 soft         electrons   0.0000000000000000     
 augmentation electrons   265.05813919849783     
 soft         electrons   0.0000000000000000     
 augmentation electrons   265.05813919849783     
 soft         electrons   0.0000000000000000     
 augmentation electrons   265.05813919849783     
 soft         electrons   0.0000000000000000     
 augmentation electrons   265.05813919849783     
 soft         electrons   0.0000000000000000     
 augmentation electrons   265.05813919849783     
 soft         electrons   0.0000000000000000     
 augmentation electrons   265.05813919849783     
 soft         electrons   0.0000000000000000     
 augmentation electrons   265.05813919849783     
 soft         electrons   0.0000000000000000     
 augmentation electrons   265.05813919849783     
 soft         electrons   0.0000000000000000     
 augmentation electrons   265.05813919849783     
 soft         electrons   0.0000000000000000     
 augmentation electrons   265.05813919849783     
 soft         electrons   0.0000000000000000     
 augmentation electrons   265.05813919849783     
 soft         electrons   0.0000000000000000     
 augmentation electrons   265.05813919849783     
 soft         electrons   0.0000000000000000     
 augmentation electrons   265.05813919849783     
 soft         electrons   0.0000000000000000     
 augmentation electrons   265.05813919849783     
 soft         electrons   0.0000000000000000     
 augmentation electrons   265.05813919849783     
 soft         electrons   0.0000000000000000     
 augmentation electrons   265.05813919849783     
 soft         electrons   0.0000000000000000     
 augmentation electrons   265.05813919849783     
 soft         electrons   0.0000000000000000     
 augmentation electrons   265.05813919849783     
 soft         electrons   0.0000000000000000     
 augmentation electrons   265.05813919849783     
 soft         electrons   0.0000000000000000     
 augmentation electrons   265.05813919849783     
 soft         electrons   0.0000000000000000     
 augmentation electrons   265.05813919849783     
 soft         electrons   0.0000000000000000     
 augmentation electrons   265.05813919849783     
 soft         electrons   0.0000000000000000     
 augmentation electrons   265.05813919849783     
 soft         electrons   0.0000000000000000     
 augmentation electrons   265.05813919849783     
 soft         electrons   0.0000000000000000     
 augmentation electrons   265.05813919849783     
 soft         electrons   0.0000000000000000     
 augmentation electrons   265.05813919849783     
 soft         electrons   0.0000000000000000     
 augmentation electrons   265.05813919849783     
 soft         electrons   0.0000000000000000     
 augmentation electrons   265.05813919849783     
 soft         electrons   0.0000000000000000     
 augmentation electrons   265.05813919849783     
 soft         electrons   0.0000000000000000     
 augmentation electrons   265.05813919849783     
 soft         electrons   0.0000000000000000     
 augmentation electrons   265.05813919849783     
 soft         electrons   0.0000000000000000     
 augmentation electrons   265.05813919849783     
 soft         electrons   0.0000000000000000     
 augmentation electrons   265.05813919849783     
 soft         electrons   0.0000000000000000     
 augmentation electrons   265.05813919849783     
 soft         electrons   0.0000000000000000     
 augmentation electrons   265.05813919849783     
 soft         electrons   0.0000000000000000     
 augmentation electrons   265.05813919849783     
 soft         electrons   0.0000000000000000     
 augmentation electrons   265.05813919849783     
 soft         electrons   0.0000000000000000     
 augmentation electrons   265.05813919849783     
 soft         electrons   0.0000000000000000     
 augmentation electrons   265.05813919849783     
 soft         electrons   0.0000000000000000     
 augmentation electrons   265.05813919849783     
 soft         electrons   0.0000000000000000     
 augmentation electrons   265.05813919849783     
 soft         electrons   0.0000000000000000     
 augmentation electrons   265.05813919849783     
 soft         electrons   0.0000000000000000     
 augmentation electrons   265.05813919849783     
 soft         electrons   0.0000000000000000     
 augmentation electrons   265.05813919849783     
 soft         electrons   0.0000000000000000     
 augmentation electrons   265.05813919849783     
 soft         electrons   0.0000000000000000     
 augmentation electrons   265.05813919849783     
 soft         electrons   0.0000000000000000     
 augmentation electrons   265.05813919849783     
 soft         electrons   0.0000000000000000     
 augmentation electrons   265.05813919849783     
 soft         electrons   0.0000000000000000     
 augmentation electrons   265.05813919849783     
 soft         electrons   0.0000000000000000     
 augmentation electrons   265.05813919849783     
 soft         electrons   0.0000000000000000     
 augmentation electrons   265.05813919849783     
 soft         electrons   0.0000000000000000     
 augmentation electrons   265.05813919849783     
 soft         electrons   0.0000000000000000     
 augmentation electrons   265.05813919849783     
 soft         electrons   0.0000000000000000     
 augmentation electrons   265.05813919849783     
 soft         electrons   0.0000000000000000     
 augmentation electrons   265.05813919849783     
 soft         electrons   0.0000000000000000     
 augmentation electrons   265.05813919849783     
 soft         electrons   0.0000000000000000     
 augmentation electrons   265.05813919849783     
 soft         electrons   0.0000000000000000     
 augmentation electrons   265.05813919849783     
 soft         electrons   0.0000000000000000     
 augmentation electrons   265.05813919849783     
 soft         electrons   0.0000000000000000     
 augmentation electrons   265.05813919849783     
 soft         electrons   0.0000000000000000     
 augmentation electrons   265.05813919849783     
 soft         electrons   0.0000000000000000     
 augmentation electrons   265.05813919849783     
 soft         electrons   0.0000000000000000     
 augmentation electrons   265.05813919849783     
 soft         electrons   0.0000000000000000     
 augmentation electrons   265.05813919849783     
 soft         electrons   0.0000000000000000     
 augmentation electrons   265.05813919849783     
 soft         electrons   0.0000000000000000     
 total        electrons   265.05813919849783     
 total        electrons   265.05813919849783     
 total        electrons   265.05813919849783     
 total        electrons   265.05813919849783     
 total        electrons   265.05813919849783     
 total        electrons   265.05813919849783     
 total        electrons   265.05813919849783     
 total        electrons   265.05813919849783     
 total        electrons   265.05813919849783     
 total        electrons   265.05813919849783     
 total        electrons   265.05813919849783     
 total        electrons   265.05813919849783     
 total        electrons   265.05813919849783     
 total        electrons   265.05813919849783     
 total        electrons   265.05813919849783     
 total        electrons   265.05813919849783     
 total        electrons   265.05813919849783     
 total        electrons   265.05813919849783     
 total        electrons   265.05813919849783     
 total        electrons   265.05813919849783     
 total        electrons   265.05813919849783     
 total        electrons   265.05813919849783     
 total        electrons   265.05813919849783     
 total        electrons   265.05813919849783     
 total        electrons   265.05813919849783     
 total        electrons   265.05813919849783     
 total        electrons   265.05813919849783     
 total        electrons   265.05813919849783     
 total        electrons   265.05813919849783     
 total        electrons   265.05813919849783     
 total        electrons   265.05813919849783     
 total        electrons   265.05813919849783     
 total        electrons   265.05813919849783     
 total        electrons   265.05813919849783     
 total        electrons   265.05813919849783     
 total        electrons   265.05813919849783     
 total        electrons   265.05813919849783     
 total        electrons   265.05813919849783     
 total        electrons   265.05813919849783     
 total        electrons   265.05813919849783     
 total        electrons   265.05813919849783     
 total        electrons   265.05813919849783     
 total        electrons   265.05813919849783     
 total        electrons   265.05813919849783     
 total        electrons   265.05813919849783     
 total        electrons   265.05813919849783     
 total        electrons   265.05813919849783     
 total        electrons   265.05813919849783     
 total        electrons   265.05813919849783     
 total        electrons   265.05813919849783     
 total        electrons   265.05813919849783     
 total        electrons   265.05813919849783     
 total        electrons   265.05813919849783     
 total        electrons   265.05813919849783     
 total        electrons   265.05813919849783     
 total        electrons   265.05813919849783     
 total        electrons   265.05813919849783     
 total        electrons   265.05813919849783     
 total        electrons   265.05813919849783     
 total        electrons   265.05813919849783     
 total        electrons   265.05813919849783     
 total        electrons   265.05813919849783     
 total        electrons   265.05813919849783     
 total        electrons   265.05813919849783     
 total        electrons   265.05813919849783     
 total        electrons   265.05813919849783     
 total        electrons   265.05813919849783     
 total        electrons   265.05813919849783     
 total        electrons   265.05813919849783     
 total        electrons   265.05813919849783     
 total        electrons   265.05813919849783     
 total        electrons   265.05813919849783     
 augmentation electrons   1134.5113766423656     
 soft         electrons   0.0000000000000000     
 augmentation electrons   1134.5113766423656     
 soft         electrons   0.0000000000000000     
 augmentation electrons   1134.5113766423656     
 soft         electrons   0.0000000000000000     
 augmentation electrons   1134.5113766423656     
 soft         electrons   0.0000000000000000     
 augmentation electrons   1134.5113766423656     
 soft         electrons   0.0000000000000000     
 augmentation electrons   1134.5113766423656     
 soft         electrons   0.0000000000000000     
 augmentation electrons   1134.5113766423656     
 soft         electrons   0.0000000000000000     
 augmentation electrons   1134.5113766423656     
 soft         electrons   0.0000000000000000     
 augmentation electrons   1134.5113766423656     
 soft         electrons   0.0000000000000000     
 augmentation electrons   1134.5113766423656     
 soft         electrons   0.0000000000000000     
 augmentation electrons   1134.5113766423656     
 soft         electrons   0.0000000000000000     
 augmentation electrons   1134.5113766423656     
 soft         electrons   0.0000000000000000     
 augmentation electrons   1134.5113766423656     
 soft         electrons   0.0000000000000000     
 augmentation electrons   1134.5113766423656     
 soft         electrons   0.0000000000000000     
 augmentation electrons   1134.5113766423656     
 soft         electrons   0.0000000000000000     
 augmentation electrons   1134.5113766423656     
 soft         electrons   0.0000000000000000     
 augmentation electrons   1134.5113766423656     
 soft         electrons   0.0000000000000000     
 augmentation electrons   1134.5113766423656     
 soft         electrons   0.0000000000000000     
 augmentation electrons   1134.5113766423656     
 soft         electrons   0.0000000000000000     
 augmentation electrons   1134.5113766423656     
 soft         electrons   0.0000000000000000     
 augmentation electrons   1134.5113766423656     
 soft         electrons   0.0000000000000000     
 augmentation electrons   1134.5113766423656     
 soft         electrons   0.0000000000000000     
 augmentation electrons   1134.5113766423656     
 soft         electrons   0.0000000000000000     
 augmentation electrons   1134.5113766423656     
 soft         electrons   0.0000000000000000     
 augmentation electrons   1134.5113766423656     
 soft         electrons   0.0000000000000000     
 augmentation electrons   1134.5113766423656     
 soft         electrons   0.0000000000000000     
 augmentation electrons   1134.5113766423656     
 soft         electrons   0.0000000000000000     
 augmentation electrons   1134.5113766423656     
 augmentation electrons   1134.5113766423656     
 soft         electrons   0.0000000000000000     
 augmentation electrons   1134.5113766423656     
 soft         electrons   0.0000000000000000     
 augmentation electrons   1134.5113766423656     
 soft         electrons   0.0000000000000000     
 augmentation electrons   1134.5113766423656     
 soft         electrons   0.0000000000000000     
 augmentation electrons   1134.5113766423656     
 soft         electrons   0.0000000000000000     
 augmentation electrons   1134.5113766423656     
 soft         electrons   0.0000000000000000     
 augmentation electrons   1134.5113766423656     
 soft         electrons   0.0000000000000000     
 augmentation electrons   1134.5113766423656     
 soft         electrons   0.0000000000000000     
 augmentation electrons   1134.5113766423656     
 soft         electrons   0.0000000000000000     
 augmentation electrons   1134.5113766423656     
 soft         electrons   0.0000000000000000     
 augmentation electrons   1134.5113766423656     
 soft         electrons   0.0000000000000000     
 augmentation electrons   1134.5113766423656     
 soft         electrons   0.0000000000000000     
 augmentation electrons   1134.5113766423656     
 soft         electrons   0.0000000000000000     
 augmentation electrons   1134.5113766423656     
 soft         electrons   0.0000000000000000     
 augmentation electrons   1134.5113766423656     
 soft         electrons   0.0000000000000000     
 augmentation electrons   1134.5113766423656     
 soft         electrons   0.0000000000000000     
 augmentation electrons   1134.5113766423656     
 soft         electrons   0.0000000000000000     
 augmentation electrons   1134.5113766423656     
 soft         electrons   0.0000000000000000     
 augmentation electrons   1134.5113766423656     
 soft         electrons   0.0000000000000000     
 augmentation electrons   1134.5113766423656     
 soft         electrons   0.0000000000000000     
 augmentation electrons   1134.5113766423656     
 soft         electrons   0.0000000000000000     
 augmentation electrons   1134.5113766423656     
 soft         electrons   0.0000000000000000     
 augmentation electrons   1134.5113766423656     
 soft         electrons   0.0000000000000000     
 augmentation electrons   1134.5113766423656     
 soft         electrons   0.0000000000000000     
 augmentation electrons   1134.5113766423656     
 soft         electrons   0.0000000000000000     
 augmentation electrons   1134.5113766423656     
 soft         electrons   0.0000000000000000     
 augmentation electrons   1134.5113766423656     
 soft         electrons   0.0000000000000000     
 augmentation electrons   1134.5113766423656     
 soft         electrons   0.0000000000000000     
 augmentation electrons   1134.5113766423656     
 soft         electrons   0.0000000000000000     
 augmentation electrons   1134.5113766423656     
 soft         electrons   0.0000000000000000     
 augmentation electrons   1134.5113766423656     
 soft         electrons   0.0000000000000000     
 augmentation electrons   1134.5113766423656     
 soft         electrons   0.0000000000000000     
 augmentation electrons   1134.5113766423656     
 soft         electrons   0.0000000000000000     
 augmentation electrons   1134.5113766423656     
 soft         electrons   0.0000000000000000     
 augmentation electrons   1134.5113766423656     
 soft         electrons   0.0000000000000000     
 augmentation electrons   1134.5113766423656     
 soft         electrons   0.0000000000000000     
 augmentation electrons   1134.5113766423656     
 soft         electrons   0.0000000000000000     
 augmentation electrons   1134.5113766423656     
 soft         electrons   0.0000000000000000     
 augmentation electrons   1134.5113766423656     
 soft         electrons   0.0000000000000000     
 augmentation electrons   1134.5113766423656     
 soft         electrons   0.0000000000000000     
 augmentation electrons   1134.5113766423656     
 soft         electrons   0.0000000000000000     
 augmentation electrons   1134.5113766423656     
 soft         electrons   0.0000000000000000     
 augmentation electrons   1134.5113766423656     
 soft         electrons   0.0000000000000000     
 augmentation electrons   1134.5113766423656     
 soft         electrons   0.0000000000000000     
 total        electrons   1134.5113766423656     
 total        electrons   1134.5113766423656     
 total        electrons   1134.5113766423656     
 total        electrons   1134.5113766423656     
 total        electrons   1134.5113766423656     
 total        electrons   1134.5113766423656     
 total        electrons   1134.5113766423656     
 total        electrons   1134.5113766423656     
 total        electrons   1134.5113766423656     
 total        electrons   1134.5113766423656     
 total        electrons   1134.5113766423656     
 total        electrons   1134.5113766423656     
 total        electrons   1134.5113766423656     
 total        electrons   1134.5113766423656     
 total        electrons   1134.5113766423656     
 total        electrons   1134.5113766423656     
 total        electrons   1134.5113766423656     
 total        electrons   1134.5113766423656     
 total        electrons   1134.5113766423656     
 total        electrons   1134.5113766423656     
 total        electrons   1134.5113766423656     
 total        electrons   1134.5113766423656     
 soft         electrons   0.0000000000000000     
 total        electrons   1134.5113766423656     
 total        electrons   1134.5113766423656     
 total        electrons   1134.5113766423656     
 total        electrons   1134.5113766423656     
 total        electrons   1134.5113766423656     
 total        electrons   1134.5113766423656     
 total        electrons   1134.5113766423656     
 total        electrons   1134.5113766423656     
 total        electrons   1134.5113766423656     
 total        electrons   1134.5113766423656     
 total        electrons   1134.5113766423656     
 total        electrons   1134.5113766423656     
 total        electrons   1134.5113766423656     
 total        electrons   1134.5113766423656     
 total        electrons   1134.5113766423656     
 total        electrons   1134.5113766423656     
 total        electrons   1134.5113766423656     
 total        electrons   1134.5113766423656     
 total        electrons   1134.5113766423656     
 total        electrons   1134.5113766423656     
 total        electrons   1134.5113766423656     
 total        electrons   1134.5113766423656     
 total        electrons   1134.5113766423656     
 total        electrons   1134.5113766423656     
 total        electrons   1134.5113766423656     
 total        electrons   1134.5113766423656     
 total        electrons   1134.5113766423656     
 total        electrons   1134.5113766423656     
 total        electrons   1134.5113766423656     
 total        electrons   1134.5113766423656     
 total        electrons   1134.5113766423656     
 total        electrons   1134.5113766423656     
 total        electrons   1134.5113766423656     
 total        electrons   1134.5113766423656     
 total        electrons   1134.5113766423656     
 total        electrons   1134.5113766423656     
 total        electrons   1134.5113766423656     
 total        electrons   1134.5113766423656     
 total        electrons   1134.5113766423656     
 total        electrons   1134.5113766423656     
 total        electrons   1134.5113766423656     
 total        electrons   1134.5113766423656     
 total        electrons   1134.5113766423656     
 total        electrons   1134.5113766423656     
 total        electrons   1134.5113766423656     
 total        electrons   1134.5113766423656     
 total        electrons   1134.5113766423656     
 total        electrons   1134.5113766423656     
 total        electrons   1134.5113766423656     
 total        electrons   1134.5113766423656     
 entering main loop
       N       E                     dE             d eps       ncg     rms          rms(c)
DAV:   1     0.234929636936E+04    0.23493E+04   -0.94873E+04  7728   0.128E+03
DAV:   2    -0.156109257997E+03   -0.25054E+04   -0.23405E+04  8984   0.311E+02
DAV:   3    -0.586173991792E+03   -0.43006E+03   -0.41155E+03 10920   0.149E+02
DAV:   4    -0.623444435851E+03   -0.37270E+02   -0.35818E+02 12456   0.490E+01
DAV:   5    -0.625764527602E+03   -0.23201E+01   -0.22373E+01 13128   0.120E+01    0.135E+02
RMM:   6    -0.566833186444E+03    0.58931E+02   -0.11251E+03 12535   0.936E+01    0.618E+01
RMM:   7    -0.613443846411E+03   -0.46611E+02   -0.40076E+02  8674   0.828E+01    0.472E+01
RMM:   8    -0.560741657408E+03    0.52702E+02   -0.14934E+02 10410   0.291E+01    0.364E+01
RMM:   9    -0.535549577289E+03    0.25192E+02   -0.81489E+01 11153   0.208E+01    0.229E+01
RMM:  10    -0.523168011831E+03    0.12382E+02   -0.19531E+01  9285   0.138E+01    0.167E+01
RMM:  11    -0.523567116258E+03   -0.39910E+00   -0.84245E+00 10003   0.850E+00    0.144E+01
RMM:  12    -0.523780995078E+03   -0.21388E+00   -0.48104E+00 12342   0.197E+00    0.139E+01
RMM:  13    -0.524527895372E+03   -0.74690E+00   -0.17229E+00 11947   0.214E+00    0.164E+01
RMM:  14    -0.524497184277E+03    0.30711E-01   -0.11835E+00 11156   0.226E+00    0.161E+01
RMM:  15    -0.523033061292E+03    0.14641E+01   -0.16943E+00  9500   0.414E+00    0.100E+01
RMM:  16    -0.522839521569E+03    0.19354E+00   -0.36762E+00  9325   0.568E+00    0.667E+00
RMM:  17    -0.522662666245E+03    0.17686E+00   -0.18021E+00  9700   0.370E+00    0.501E+00
RMM:  18    -0.522630609010E+03    0.32057E-01   -0.69321E-01 11996   0.118E+00    0.487E+00
RMM:  19    -0.522517651275E+03    0.11296E+00   -0.96668E-02 10733   0.813E-01    0.428E+00
RMM:  20    -0.522306774474E+03    0.21088E+00   -0.53172E-01 11656   0.135E+00    0.251E+00
RMM:  21    -0.522234266534E+03    0.72508E-01   -0.41266E-01 11565   0.141E+00    0.118E+00
RMM:  22    -0.522224435228E+03    0.98313E-02   -0.82437E-02 12378   0.405E-01    0.747E-01
RMM:  23    -0.522221601328E+03    0.28339E-02   -0.19369E-02  9211   0.440E-01    0.720E-01
RMM:  24    -0.522217546925E+03    0.40544E-02   -0.92765E-03  9016   0.346E-01    0.555E-01
RMM:  25    -0.522215128766E+03    0.24182E-02   -0.11768E-02 11961   0.182E-01    0.402E-01
RMM:  26    -0.522212596310E+03    0.25325E-02   -0.59048E-03 11739   0.134E-01    0.170E-01
RMM:  27    -0.522212451875E+03    0.14443E-03   -0.48216E-03 11952   0.109E-01    0.223E-01
RMM:  28    -0.522212114865E+03    0.33701E-03   -0.13960E-03 11019   0.890E-02    0.103E-01
RMM:  29    -0.522212290837E+03   -0.17597E-03   -0.76211E-04 11446   0.515E-02    0.671E-02
RMM:  30    -0.522212715323E+03   -0.42449E-03   -0.28126E-04 10119   0.341E-02    0.709E-02
RMM:  31    -0.522213042172E+03   -0.32685E-03   -0.23272E-04 10353   0.341E-02    0.389E-02
RMM:  32    -0.522213417014E+03   -0.37484E-03   -0.67937E-04 11501   0.429E-02    0.567E-02
RMM:  33    -0.522213481770E+03   -0.64756E-04   -0.67039E-05  9312   0.149E-02    0.395E-02
RMM:  34    -0.522213548662E+03   -0.66892E-04   -0.35917E-05  9209   0.913E-03    0.323E-02
RMM:  35    -0.522213603978E+03   -0.55316E-04   -0.36286E-05  9876   0.118E-02    0.921E-03
RMM:  36    -0.522213692651E+03   -0.88672E-04   -0.19230E-05  8840   0.730E-03    0.630E-03
RMM:  37    -0.522213762488E+03   -0.69838E-04   -0.61171E-06  7241   0.701E-03    0.452E-03
RMM:  38    -0.522213827437E+03   -0.64949E-04   -0.64210E-06  7216   0.485E-03    0.640E-03
RMM:  39    -0.522213882091E+03   -0.54654E-04   -0.48226E-06  6885   0.490E-03    0.494E-03
RMM:  40    -0.522213914017E+03   -0.31926E-04   -0.64094E-06  7229   0.580E-03    0.120E-02
RMM:  41    -0.522213925536E+03   -0.11518E-04   -0.14328E-06  6153   0.349E-03    0.872E-03
RMM:  42    -0.522213927089E+03   -0.15536E-05   -0.48391E-07  5167   0.174E-03    0.758E-03
RMM:  43    -0.522213929876E+03   -0.27873E-05   -0.73449E-07  5525   0.231E-03    0.427E-03
RMM:  44    -0.522213932171E+03   -0.22945E-05   -0.10712E-06  5504   0.152E-03    0.193E-03
RMM:  45    -0.522213933101E+03   -0.92961E-06   -0.31672E-07  5018   0.178E-03
   1 F= -.52221393E+03 E0= -.52220827E+03  d E =-.169927E-01
 augmentation electrons   27.668696321630314     
 soft         electrons   237.45161621479036     
 augmentation electrons   27.668696321630314     
 soft         electrons   237.45161621479036     
 augmentation electrons   27.668696321630314     
 soft         electrons   237.45161621479036     
 augmentation electrons   27.668696321630314     
 soft         electrons   237.45161621479036     
 augmentation electrons   27.668696321630314     
 soft         electrons   237.45161621479036     
 augmentation electrons   27.668696321630314     
 soft         electrons   237.45161621479036     
 augmentation electrons   27.668696321630314     
 soft         electrons   237.45161621479036     
 augmentation electrons   27.668696321630314     
 soft         electrons   237.45161621479036     
 augmentation electrons   27.668696321630314     
 soft         electrons   237.45161621479036     
 augmentation electrons   27.668696321630314     
 soft         electrons   237.45161621479036     
 augmentation electrons   27.668696321630314     
 soft         electrons   237.45161621479036     
 augmentation electrons   27.668696321630314     
 soft         electrons   237.45161621479036     
 augmentation electrons   27.668696321630314     
 soft         electrons   237.45161621479036     
 augmentation electrons   27.668696321630314     
 soft         electrons   237.45161621479036     
 augmentation electrons   27.668696321630314     
 soft         electrons   237.45161621479036     
 augmentation electrons   27.668696321630314     
 soft         electrons   237.45161621479036     
 augmentation electrons   27.668696321630314     
 soft         electrons   237.45161621479036     
 augmentation electrons   27.668696321630314     
 soft         electrons   237.45161621479036     
 augmentation electrons   27.668696321630314     
 soft         electrons   237.45161621479036     
 augmentation electrons   27.668696321630314     
 soft         electrons   237.45161621479036     
 augmentation electrons   27.668696321630314     
 soft         electrons   237.45161621479036     
 augmentation electrons   27.668696321630314     
 soft         electrons   237.45161621479036     
 augmentation electrons   27.668696321630314     
 soft         electrons   237.45161621479036     
 augmentation electrons   27.668696321630314     
 soft         electrons   237.45161621479036     
 augmentation electrons   27.668696321630314     
 soft         electrons   237.45161621479036     
 augmentation electrons   27.668696321630314     
 soft         electrons   237.45161621479036     
 augmentation electrons   27.668696321630314     
 soft         electrons   237.45161621479036     
 augmentation electrons   27.668696321630314     
 soft         electrons   237.45161621479036     
 augmentation electrons   27.668696321630314     
 soft         electrons   237.45161621479036     
 augmentation electrons   27.668696321630314     
 soft         electrons   237.45161621479036     
 augmentation electrons   27.668696321630314     
 soft         electrons   237.45161621479036     
 augmentation electrons   27.668696321630314     
 soft         electrons   237.45161621479036     
 augmentation electrons   27.668696321630314     
 soft         electrons   237.45161621479036     
 augmentation electrons   27.668696321630314     
 soft         electrons   237.45161621479036     
 augmentation electrons   27.668696321630314     
 soft         electrons   237.45161621479036     
 augmentation electrons   27.668696321630314     
 soft         electrons   237.45161621479036     
 augmentation electrons   27.668696321630314     
 soft         electrons   237.45161621479036     
 augmentation electrons   27.668696321630314     
 soft         electrons   237.45161621479036     
 augmentation electrons   27.668696321630314     
 soft         electrons   237.45161621479036     
 augmentation electrons   27.668696321630314     
 soft         electrons   237.45161621479036     
 augmentation electrons   27.668696321630314     
 soft         electrons   237.45161621479036     
 augmentation electrons   27.668696321630314     
 soft         electrons   237.45161621479036     
 augmentation electrons   27.668696321630314     
 soft         electrons   237.45161621479036     
 augmentation electrons   27.668696321630314     
 soft         electrons   237.45161621479036     
 augmentation electrons   27.668696321630314     
 soft         electrons   237.45161621479036     
 augmentation electrons   27.668696321630314     
 soft         electrons   237.45161621479036     
 augmentation electrons   27.668696321630314     
 soft         electrons   237.45161621479036     
 augmentation electrons   27.668696321630314     
 soft         electrons   237.45161621479036     
 augmentation electrons   27.668696321630314     
 soft         electrons   237.45161621479036     
 augmentation electrons   27.668696321630314     
 soft         electrons   237.45161621479036     
 augmentation electrons   27.668696321630314     
 soft         electrons   237.45161621479036     
 augmentation electrons   27.668696321630314     
 soft         electrons   237.45161621479036     
 augmentation electrons   27.668696321630314     
 soft         electrons   237.45161621479036     
 augmentation electrons   27.668696321630314     
 soft         electrons   237.45161621479036     
 augmentation electrons   27.668696321630314     
 soft         electrons   237.45161621479036     
 augmentation electrons   27.668696321630314     
 soft         electrons   237.45161621479036     
 augmentation electrons   27.668696321630314     
 soft         electrons   237.45161621479036     
 augmentation electrons   27.668696321630314     
 soft         electrons   237.45161621479036     
 augmentation electrons   27.668696321630314     
 soft         electrons   237.45161621479036     
 augmentation electrons   27.668696321630314     
 soft         electrons   237.45161621479036     
 augmentation electrons   27.668696321630314     
 soft         electrons   237.45161621479036     
 augmentation electrons   27.668696321630314     
 soft         electrons   237.45161621479036     
 augmentation electrons   27.668696321630314     
 soft         electrons   237.45161621479036     
 augmentation electrons   27.668696321630314     
 soft         electrons   237.45161621479036     
 augmentation electrons   27.668696321630314     
 soft         electrons   237.45161621479036     
 augmentation electrons   27.668696321630314     
 soft         electrons   237.45161621479036     
 augmentation electrons   27.668696321630314     
 soft         electrons   237.45161621479036     
 augmentation electrons   27.668696321630314     
 soft         electrons   237.45161621479036     
 augmentation electrons   27.668696321630314     
 soft         electrons   237.45161621479036     
 augmentation electrons   27.668696321630314     
 soft         electrons   237.45161621479036     
 augmentation electrons   27.668696321630314     
 soft         electrons   237.45161621479036     
 augmentation electrons   27.668696321630314     
 soft         electrons   237.45161621479036     
 total        electrons   265.12031253642067     
 total        electrons   265.12031253642067     
 total        electrons   265.12031253642067     
 total        electrons   265.12031253642067     
 total        electrons   265.12031253642067     
 total        electrons   265.12031253642067     
 total        electrons   265.12031253642067     
 total        electrons   265.12031253642067     
 total        electrons   265.12031253642067     
 total        electrons   265.12031253642067     
 total        electrons   265.12031253642067     
 total        electrons   265.12031253642067     
 total        electrons   265.12031253642067     
 total        electrons   265.12031253642067     
 total        electrons   265.12031253642067     
 total        electrons   265.12031253642067     
 total        electrons   265.12031253642067     
 total        electrons   265.12031253642067     
 total        electrons   265.12031253642067     
 total        electrons   265.12031253642067     
 total        electrons   265.12031253642067     
 total        electrons   265.12031253642067     
 total        electrons   265.12031253642067     
 total        electrons   265.12031253642067     
 total        electrons   265.12031253642067     
 total        electrons   265.12031253642067     
 total        electrons   265.12031253642067     
 total        electrons   265.12031253642067     
 total        electrons   265.12031253642067     
 total        electrons   265.12031253642067     
 total        electrons   265.12031253642067     
 total        electrons   265.12031253642067     
 total        electrons   265.12031253642067     
 total        electrons   265.12031253642067     
 total        electrons   265.12031253642067     
 total        electrons   265.12031253642067     
 total        electrons   265.12031253642067     
 total        electrons   265.12031253642067     
 total        electrons   265.12031253642067     
 total        electrons   265.12031253642067     
 total        electrons   265.12031253642067     
 total        electrons   265.12031253642067     
 total        electrons   265.12031253642067     
 total        electrons   265.12031253642067     
 total        electrons   265.12031253642067     
 total        electrons   265.12031253642067     
 total        electrons   265.12031253642067     
 total        electrons   265.12031253642067     
 total        electrons   265.12031253642067     
 total        electrons   265.12031253642067     
 total        electrons   265.12031253642067     
 total        electrons   265.12031253642067     
 total        electrons   265.12031253642067     
 total        electrons   265.12031253642067     
 total        electrons   265.12031253642067     
 total        electrons   265.12031253642067     
 total        electrons   265.12031253642067     
 total        electrons   265.12031253642067     
 total        electrons   265.12031253642067     
 total        electrons   265.12031253642067     
 total        electrons   265.12031253642067     
 total        electrons   265.12031253642067     
 total        electrons   265.12031253642067     
 total        electrons   265.12031253642067     
 total        electrons   265.12031253642067     
 total        electrons   265.12031253642067     
 total        electrons   265.12031253642067     
 total        electrons   265.12031253642067     
 total        electrons   265.12031253642067     
 total        electrons   265.12031253642067     
 total        electrons   265.12031253642067     
 total        electrons   265.12031253642067     
Note: The following floating-point exceptions are signalling: IEEE_OVERFLOW_FLAG
Note: The following floating-point exceptions are signalling: IEEE_OVERFLOW_FLAG
Note: The following floating-point exceptions are signalling: IEEE_OVERFLOW_FLAG
Note: The following floating-point exceptions are signalling: IEEE_OVERFLOW_FLAG
Note: The following floating-point exceptions are signalling: IEEE_OVERFLOW_FLAG
Note: The following floating-point exceptions are signalling: IEEE_OVERFLOW_FLAG
Note: The following floating-point exceptions are signalling: IEEE_OVERFLOW_FLAG
Note: The following floating-point exceptions are signalling: IEEE_OVERFLOW_FLAG
Note: The following floating-point exceptions are signalling: IEEE_OVERFLOW_FLAG
Note: The following floating-point exceptions are signalling: IEEE_OVERFLOW_FLAG
Note: The following floating-point exceptions are signalling: IEEE_OVERFLOW_FLAG
Note: The following floating-point exceptions are signalling: IEEE_OVERFLOW_FLAG
Note: The following floating-point exceptions are signalling: IEEE_OVERFLOW_FLAG
Note: The following floating-point exceptions are signalling: IEEE_OVERFLOW_FLAG
Note: The following floating-point exceptions are signalling: IEEE_OVERFLOW_FLAG
Note: The following floating-point exceptions are signalling: IEEE_OVERFLOW_FLAG
Note: The following floating-point exceptions are signalling: IEEE_OVERFLOW_FLAG
Note: The following floating-point exceptions are signalling: IEEE_OVERFLOW_FLAG
Note: The following floating-point exceptions are signalling: IEEE_OVERFLOW_FLAG
Note: The following floating-point exceptions are signalling: IEEE_OVERFLOW_FLAG
Note: The following floating-point exceptions are signalling: IEEE_OVERFLOW_FLAG
Note: The following floating-point exceptions are signalling: IEEE_OVERFLOW_FLAG
Note: The following floating-point exceptions are signalling: IEEE_OVERFLOW_FLAG
Note: The following floating-point exceptions are signalling: IEEE_OVERFLOW_FLAG
Note: The following floating-point exceptions are signalling: IEEE_OVERFLOW_FLAG
Note: The following floating-point exceptions are signalling: IEEE_OVERFLOW_FLAG
Note: The following floating-point exceptions are signalling: IEEE_OVERFLOW_FLAG
Note: The following floating-point exceptions are signalling: IEEE_OVERFLOW_FLAG
Note: The following floating-point exceptions are signalling: IEEE_OVERFLOW_FLAG
Note: The following floating-point exceptions are signalling: IEEE_OVERFLOW_FLAG
Note: The following floating-point exceptions are signalling: IEEE_OVERFLOW_FLAG
Note: The following floating-point exceptions are signalling: IEEE_OVERFLOW_FLAG
Note: The following floating-point exceptions are signalling: IEEE_OVERFLOW_FLAG
Note: The following floating-point exceptions are signalling: IEEE_OVERFLOW_FLAG
Note: The following floating-point exceptions are signalling: IEEE_OVERFLOW_FLAG
Note: The following floating-point exceptions are signalling: IEEE_OVERFLOW_FLAG
Note: The following floating-point exceptions are signalling: IEEE_OVERFLOW_FLAG
Note: The following floating-point exceptions are signalling: IEEE_OVERFLOW_FLAG
Note: The following floating-point exceptions are signalling: IEEE_OVERFLOW_FLAG
Note: The following floating-point exceptions are signalling: IEEE_OVERFLOW_FLAG
Note: The following floating-point exceptions are signalling: IEEE_OVERFLOW_FLAG
Note: The following floating-point exceptions are signalling: IEEE_OVERFLOW_FLAG
Note: The following floating-point exceptions are signalling: IEEE_OVERFLOW_FLAG
Note: The following floating-point exceptions are signalling: IEEE_OVERFLOW_FLAG
Note: The following floating-point exceptions are signalling: IEEE_OVERFLOW_FLAG
Note: The following floating-point exceptions are signalling: IEEE_OVERFLOW_FLAG
Note: The following floating-point exceptions are signalling: IEEE_OVERFLOW_FLAG
Note: The following floating-point exceptions are signalling: IEEE_OVERFLOW_FLAG
Note: The following floating-point exceptions are signalling: IEEE_OVERFLOW_FLAG
Note: The following floating-point exceptions are signalling: IEEE_OVERFLOW_FLAG
Note: The following floating-point exceptions are signalling: IEEE_OVERFLOW_FLAG
Note: The following floating-point exceptions are signalling: IEEE_OVERFLOW_FLAG
Note: The following floating-point exceptions are signalling: IEEE_OVERFLOW_FLAG
Note: The following floating-point exceptions are signalling: IEEE_OVERFLOW_FLAG
Note: The following floating-point exceptions are signalling: IEEE_OVERFLOW_FLAG
Note: The following floating-point exceptions are signalling: IEEE_OVERFLOW_FLAG
Note: The following floating-point exceptions are signalling: IEEE_OVERFLOW_FLAG
Note: The following floating-point exceptions are signalling: IEEE_OVERFLOW_FLAG
Note: The following floating-point exceptions are signalling: IEEE_OVERFLOW_FLAG
Note: The following floating-point exceptions are signalling: IEEE_OVERFLOW_FLAG
Note: The following floating-point exceptions are signalling: IEEE_OVERFLOW_FLAG
Note: The following floating-point exceptions are signalling: IEEE_OVERFLOW_FLAG
Note: The following floating-point exceptions are signalling: IEEE_OVERFLOW_FLAG
Note: The following floating-point exceptions are signalling: IEEE_OVERFLOW_FLAG
Note: The following floating-point exceptions are signalling: IEEE_OVERFLOW_FLAG
Note: The following floating-point exceptions are signalling: IEEE_OVERFLOW_FLAG
Note: The following floating-point exceptions are signalling: IEEE_OVERFLOW_FLAG
Note: The following floating-point exceptions are signalling: IEEE_OVERFLOW_FLAG
Note: The following floating-point exceptions are signalling: IEEE_OVERFLOW_FLAG
Note: The following floating-point exceptions are signalling: IEEE_OVERFLOW_FLAG
Note: The following floating-point exceptions are signalling: IEEE_OVERFLOW_FLAG
Note: The following floating-point exceptions are signalling: IEEE_OVERFLOW_FLAG
