   75   75    1    1
  0.2082215E+02  0.1053953E-08  0.6141200E-09  0.2412750E-08  0.5000000E-15
   1.0000000000000000E-004
  CAR 
 Name                                    
    285     23    184

  0.3742002E-15  0.3742002E-15  0.1262379E-14  0.2222222E-01
    1      -13.797081   1.000000
    2      -12.651171   1.000000
    3      -12.643143   1.000000
    4      -12.594081   1.000000
    5      -11.641784   1.000000
    6      -11.623472   1.000000
    7      -11.459800   1.000000
    8      -11.416498   1.000000
    9      -11.231026   1.000000
   10      -11.221242   1.000000
   11      -11.125885   1.000000
   12      -10.917691   1.000000
   13      -10.866085   1.000000
   14      -10.538819   1.000000
   15      -10.493500   1.000000
   16      -10.448618   1.000000
   17      -10.222335   1.000000
   18       -9.992937   1.000000
   19       -9.991330   1.000000
   20       -9.877908   1.000000
   21       -9.580835   1.000000
   22       -9.527885   1.000000
   23       -9.474137   1.000000
   24       -9.326475   1.000000
   25       -9.054979   1.000000
   26       -8.826397   1.000000
   27       -8.720870   1.000000
   28       -8.542669   1.000000
   29       -8.273130   1.000000
   30       -8.220653   1.000000
   31       -7.971730   1.000000
   32       -7.672143   1.000000
   33       -7.661160   1.000000
   34       -7.657645   1.000000
   35       -7.559489   1.000000
   36       -7.069946   1.000000
   37       -7.043323   1.000000
   38       -6.893932   1.000000
   39       -6.750146   1.000000
   40       -6.557468   1.000000
   41       -6.551224   1.000000
   42       -6.492907   1.000000
   43       -6.457589   1.000000
   44       -6.412038   1.000000
   45       -6.366851   1.000000
   46       -6.300100   1.000000
   47       -6.229226   1.000000
   48       -6.138509   1.000000
   49       -6.034410   1.000000
   50       -6.017055   1.000000
   51       -5.872085   1.000000
   52       -5.839868   1.000000
   53       -5.667047   1.000000
   54       -5.619520   1.000000
   55       -5.525084   1.000000
   56       -5.442135   1.000000
   57       -5.374380   1.000000
   58       -5.347316   1.000000
   59       -5.265774   1.000000
   60       -5.154953   1.000000
   61       -5.141910   1.000000
   62       -5.058910   1.000000
   63       -4.987265   1.000000
   64       -4.791165   1.000000
   65       -4.574009   1.000000
   66       -4.526261   1.000000
   67       -4.511808   1.000000
   68       -4.492560   1.000000
   69       -4.427056   1.000000
   70       -4.395152   1.000000
   71       -4.356169   1.000000
   72       -4.246466   1.000000
   73       -4.177156   1.000000
   74       -4.061388   1.000000
   75       -3.941578   1.000000
   76       -3.877793   1.000000
   77       -3.868201   1.000000
   78       -3.809373   1.000000
   79       -3.794879   1.000000
   80       -3.746716   1.000000
   81       -3.730243   1.000000
   82       -3.730118   1.000000
   83       -3.691124   1.000000
   84       -3.672131   1.000000
   85       -3.632345   1.000000
   86       -3.575878   1.000000
   87       -3.450909   1.000000
   88       -3.411920   1.000000
   89       -3.373608   1.000000
   90       -3.366112   1.000000
   91       -3.247434   1.000000
   92       -3.014200   1.000000
   93       -3.013721   1.000000
   94       -2.936863   1.000000
   95       -2.870771   1.000000
   96       -2.854108   1.000000
   97       -2.832843   1.000000
   98       -2.710578   1.000000
   99       -2.636699   1.000000
  100       -2.560950   1.000000
  101       -2.522683   1.000000
  102       -2.440639   1.000000
  103       -2.307611   1.000000
  104       -2.226447   1.000000
  105       -2.217690   1.000000
  106       -2.177675   1.000000
  107       -2.159419   1.000000
  108       -2.054461   1.000000
  109       -1.995930   1.000000
  110       -1.945531   1.000000
  111       -1.927149   1.000000
  112       -1.919799   1.000000
  113       -1.897316   1.000000
  114       -1.723805   1.000000
  115       -1.720435   1.000000
  116       -1.523433   1.000000
  117       -1.494481   1.000000
  118       -1.446281   1.000000
  119       -1.422263   1.000000
  120       -1.285362   1.000000
  121       -1.226669   1.000000
  122       -1.088321   1.000000
  123       -0.852957   1.000000
  124       -0.839383   1.000000
  125       -0.784695   1.000000
  126       -0.641305   1.000000
  127       -0.552492   1.000000
  128       -0.313146   1.000000
  129       -0.262679   1.000000
  130       -0.183729   1.000000
  131       -0.035095   1.000000
  132       -0.005085   1.000000
  133        0.021442   1.000000
  134        0.094179   1.000000
  135        0.300976   1.000000
  136        0.382937   1.000073
  137        0.421861   1.000564
  138        0.445506   1.001655
  139        0.500893   1.012078
  140        0.512346   1.016426
  141        0.521687   1.020476
  142        0.611188   0.979545
  143        0.708157   0.328015
  144        0.744375   0.093748
  145        0.802155  -0.034456
  146        0.803270  -0.034737
  147        0.848401  -0.022577
  148        0.860575  -0.017162
  149        0.974144  -0.000192
  150        1.018645  -0.000015
  151        1.218258  -0.000000
  152        1.247357  -0.000000
  153        1.307147  -0.000000
  154        1.374278  -0.000000
  155        1.392439  -0.000000
  156        1.458858  -0.000000
  157        1.493776  -0.000000
  158        1.498236  -0.000000
  159        1.538607  -0.000000
  160        1.551291  -0.000000
  161        1.633662  -0.000000
  162        1.634155  -0.000000
  163        1.681721  -0.000000
  164        1.707371  -0.000000
  165        1.777139  -0.000000
  166        1.860369  -0.000000
  167        1.882514  -0.000000
  168        1.907155  -0.000000
  169        1.937616  -0.000000
  170        1.953470  -0.000000
  171        1.966100  -0.000000
  172        1.991411  -0.000000
  173        2.040555  -0.000000
  174        2.110794  -0.000000
  175        2.166223  -0.000000
  176        2.276464  -0.000000
  177        2.326512  -0.000000
  178        2.346689  -0.000000
  179        2.494874  -0.000000
  180        2.587969  -0.000000
  181        2.737939  -0.000000
  182        2.971453  -0.000000
  183        3.063111  -0.000000
  184        3.967360   0.000000

  0.2000000E+00  0.3742002E-15  0.1262379E-14  0.4444444E-01
    1      -13.748568   1.000000
    2      -13.042552   1.000000
    3      -12.570460   1.000000
    4      -12.164757   1.000000
    5      -11.916695   1.000000
    6      -11.618369   1.000000
    7      -11.464357   1.000000
    8      -11.233237   1.000000
    9      -11.160270   1.000000
   10      -11.152981   1.000000
   11      -11.068492   1.000000
   12      -10.959147   1.000000
   13      -10.781618   1.000000
   14      -10.605720   1.000000
   15      -10.578188   1.000000
   16      -10.463947   1.000000
   17      -10.423603   1.000000
   18      -10.253097   1.000000
   19       -9.978288   1.000000
   20       -9.884392   1.000000
   21       -9.530010   1.000000
   22       -9.433591   1.000000
   23       -9.329200   1.000000
   24       -9.273784   1.000000
   25       -9.107255   1.000000
   26       -8.988724   1.000000
   27       -8.558419   1.000000
   28       -8.347836   1.000000
   29       -8.212764   1.000000
   30       -8.145269   1.000000
   31       -8.042620   1.000000
   32       -7.905959   1.000000
   33       -7.606067   1.000000
   34       -7.540696   1.000000
   35       -7.422880   1.000000
   36       -7.314646   1.000000
   37       -7.047577   1.000000
   38       -6.995991   1.000000
   39       -6.941386   1.000000
   40       -6.679821   1.000000
   41       -6.554427   1.000000
   42       -6.525696   1.000000
   43       -6.498511   1.000000
   44       -6.453006   1.000000
   45       -6.411722   1.000000
   46       -6.315404   1.000000
   47       -6.012619   1.000000
   48       -5.995654   1.000000
   49       -5.983507   1.000000
   50       -5.899878   1.000000
   51       -5.861190   1.000000
   52       -5.821286   1.000000
   53       -5.735015   1.000000
   54       -5.561086   1.000000
   55       -5.436874   1.000000
   56       -5.405679   1.000000
   57       -5.311129   1.000000
   58       -5.279323   1.000000
   59       -5.257470   1.000000
   60       -5.179818   1.000000
   61       -5.160578   1.000000
   62       -5.109981   1.000000
   63       -4.999147   1.000000
   64       -4.860058   1.000000
   65       -4.642022   1.000000
   66       -4.541092   1.000000
   67       -4.495053   1.000000
   68       -4.490842   1.000000
   69       -4.462792   1.000000
   70       -4.393833   1.000000
   71       -4.393390   1.000000
   72       -4.144403   1.000000
   73       -4.116991   1.000000
   74       -4.029981   1.000000
   75       -3.999518   1.000000
   76       -3.936526   1.000000
   77       -3.923598   1.000000
   78       -3.823263   1.000000
   79       -3.770819   1.000000
   80       -3.749452   1.000000
   81       -3.745739   1.000000
   82       -3.732287   1.000000
   83       -3.729823   1.000000
   84       -3.676317   1.000000
   85       -3.624969   1.000000
   86       -3.449821   1.000000
   87       -3.407173   1.000000
   88       -3.388649   1.000000
   89       -3.382812   1.000000
   90       -3.342653   1.000000
   91       -3.264497   1.000000
   92       -3.099759   1.000000
   93       -3.005753   1.000000
   94       -2.960404   1.000000
   95       -2.953098   1.000000
   96       -2.924563   1.000000
   97       -2.853262   1.000000
   98       -2.758063   1.000000
   99       -2.631497   1.000000
  100       -2.572502   1.000000
  101       -2.551519   1.000000
  102       -2.430041   1.000000
  103       -2.303734   1.000000
  104       -2.270327   1.000000
  105       -2.239261   1.000000
  106       -2.082696   1.000000
  107       -2.036830   1.000000
  108       -2.008128   1.000000
  109       -1.992886   1.000000
  110       -1.975640   1.000000
  111       -1.906302   1.000000
  112       -1.841648   1.000000
  113       -1.796859   1.000000
  114       -1.708874   1.000000
  115       -1.582541   1.000000
  116       -1.570535   1.000000
  117       -1.547055   1.000000
  118       -1.439098   1.000000
  119       -1.298305   1.000000
  120       -1.234010   1.000000
  121       -1.194183   1.000000
  122       -1.114718   1.000000
  123       -0.950394   1.000000
  124       -0.886095   1.000000
  125       -0.810764   1.000000
  126       -0.675471   1.000000
  127       -0.621635   1.000000
  128       -0.353955   1.000000
  129       -0.296969   1.000000
  130       -0.286751   1.000000
  131       -0.267872   1.000000
  132       -0.061258   1.000000
  133        0.009286   1.000000
  134        0.020744   1.000000
  135        0.191718   1.000000
  136        0.250854   1.000000
  137        0.342112   1.000006
  138        0.471300   1.004602
  139        0.494943   1.010140
  140        0.571662   1.034679
  141        0.607420   0.989851
  142        0.714790   0.277140
  143        0.800898  -0.034078
  144        0.852386  -0.020754
  145        0.862455  -0.016379
  146        0.865353  -0.015208
  147        0.870347  -0.013304
  148        0.893624  -0.006492
  149        0.909840  -0.003618
  150        0.967201  -0.000275
  151        1.179311  -0.000000
  152        1.311583  -0.000000
  153        1.381115  -0.000000
  154        1.411270  -0.000000
  155        1.437866  -0.000000
  156        1.481175  -0.000000
  157        1.492860  -0.000000
  158        1.511371  -0.000000
  159        1.553038  -0.000000
  160        1.616044  -0.000000
  161        1.680342  -0.000000
  162        1.695657  -0.000000
  163        1.707879  -0.000000
  164        1.724343  -0.000000
  165        1.791897  -0.000000
  166        1.845057  -0.000000
  167        1.875957  -0.000000
  168        1.902750  -0.000000
  169        1.947732  -0.000000
  170        1.955994  -0.000000
  171        2.034452  -0.000000
  172        2.053998  -0.000000
  173        2.137936  -0.000000
  174        2.152172  -0.000000
  175        2.269090  -0.000000
  176        2.343958  -0.000000
  177        2.400289  -0.000000
  178        2.477701  -0.000000
  179        2.612852  -0.000000
  180        2.848476  -0.000000
  181        3.017872  -0.000000
  182        3.120297  -0.000000
  183        3.371171  -0.000000
  184        4.074121   0.000000

  0.4000000E+00  0.3742002E-15  0.1262379E-14  0.4444444E-01
    1      -13.604223   1.000000
    2      -13.366701   1.000000
    3      -12.441826   1.000000
    4      -12.215762   1.000000
    5      -11.621755   1.000000
    6      -11.586634   1.000000
    7      -11.533818   1.000000
    8      -11.168483   1.000000
    9      -11.128415   1.000000
   10      -11.097716   1.000000
   11      -10.993692   1.000000
   12      -10.923569   1.000000
   13      -10.889432   1.000000
   14      -10.758855   1.000000
   15      -10.652191   1.000000
   16      -10.526075   1.000000
   17      -10.483213   1.000000
   18      -10.292183   1.000000
   19      -10.129319   1.000000
   20       -9.899336   1.000000
   21       -9.678221   1.000000
   22       -9.403750   1.000000
   23       -9.348330   1.000000
   24       -9.134814   1.000000
   25       -9.071956   1.000000
   26       -8.788265   1.000000
   27       -8.363444   1.000000
   28       -8.320541   1.000000
   29       -8.191776   1.000000
   30       -8.043156   1.000000
   31       -7.986032   1.000000
   32       -7.713460   1.000000
   33       -7.697740   1.000000
   34       -7.582144   1.000000
   35       -7.551065   1.000000
   36       -7.400982   1.000000
   37       -7.276302   1.000000
   38       -7.223005   1.000000
   39       -7.034463   1.000000
   40       -6.905515   1.000000
   41       -6.674911   1.000000
   42       -6.441554   1.000000
   43       -6.383248   1.000000
   44       -6.358989   1.000000
   45       -6.348983   1.000000
   46       -6.257035   1.000000
   47       -6.138931   1.000000
   48       -5.982042   1.000000
   49       -5.903035   1.000000
   50       -5.825456   1.000000
   51       -5.767024   1.000000
   52       -5.678061   1.000000
   53       -5.674434   1.000000
   54       -5.555764   1.000000
   55       -5.499446   1.000000
   56       -5.478636   1.000000
   57       -5.380865   1.000000
   58       -5.250585   1.000000
   59       -5.169387   1.000000
   60       -5.145211   1.000000
   61       -5.123615   1.000000
   62       -4.943370   1.000000
   63       -4.872187   1.000000
   64       -4.776892   1.000000
   65       -4.688357   1.000000
   66       -4.683120   1.000000
   67       -4.576436   1.000000
   68       -4.563962   1.000000
   69       -4.498421   1.000000
   70       -4.433462   1.000000
   71       -4.291431   1.000000
   72       -4.212420   1.000000
   73       -4.133165   1.000000
   74       -4.046892   1.000000
   75       -3.979554   1.000000
   76       -3.940239   1.000000
   77       -3.910852   1.000000
   78       -3.886975   1.000000
   79       -3.848782   1.000000
   80       -3.766693   1.000000
   81       -3.747060   1.000000
   82       -3.731849   1.000000
   83       -3.705011   1.000000
   84       -3.603923   1.000000
   85       -3.542139   1.000000
   86       -3.498907   1.000000
   87       -3.440156   1.000000
   88       -3.393441   1.000000
   89       -3.257039   1.000000
   90       -3.237543   1.000000
   91       -3.184869   1.000000
   92       -3.161138   1.000000
   93       -3.116321   1.000000
   94       -3.090995   1.000000
   95       -3.009323   1.000000
   96       -2.977637   1.000000
   97       -2.918650   1.000000
   98       -2.777392   1.000000
   99       -2.724805   1.000000
  100       -2.655139   1.000000
  101       -2.609698   1.000000
  102       -2.367029   1.000000
  103       -2.345613   1.000000
  104       -2.277870   1.000000
  105       -2.116579   1.000000
  106       -2.090545   1.000000
  107       -2.063179   1.000000
  108       -1.945746   1.000000
  109       -1.889484   1.000000
  110       -1.832011   1.000000
  111       -1.761038   1.000000
  112       -1.685973   1.000000
  113       -1.660455   1.000000
  114       -1.618882   1.000000
  115       -1.612875   1.000000
  116       -1.601336   1.000000
  117       -1.519530   1.000000
  118       -1.327666   1.000000
  119       -1.233055   1.000000
  120       -1.179686   1.000000
  121       -1.174272   1.000000
  122       -1.029780   1.000000
  123       -1.017838   1.000000
  124       -0.970263   1.000000
  125       -0.864287   1.000000
  126       -0.777404   1.000000
  127       -0.705436   1.000000
  128       -0.685677   1.000000
  129       -0.653209   1.000000
  130       -0.449186   1.000000
  131       -0.269794   1.000000
  132       -0.255084   1.000000
  133       -0.028608   1.000000
  134        0.024784   1.000000
  135        0.182078   1.000000
  136        0.209257   1.000000
  137        0.427883   1.000751
  138        0.443193   1.001498
  139        0.474609   1.005186
  140        0.492466   1.009400
  141        0.582742   1.029266
  142        0.704021   0.361011
  143        0.783552  -0.020733
  144        0.850886  -0.021436
  145        0.885898  -0.008374
  146        0.891790  -0.006906
  147        0.917781  -0.002653
  148        0.991127  -0.000075
  149        1.076393  -0.000000
  150        1.155601  -0.000000
  151        1.173954  -0.000000
  152        1.261034  -0.000000
  153        1.332114  -0.000000
  154        1.440638  -0.000000
  155        1.530661  -0.000000
  156        1.563834  -0.000000
  157        1.599018  -0.000000
  158        1.676912  -0.000000
  159        1.692619  -0.000000
  160        1.696645  -0.000000
  161        1.708361  -0.000000
  162        1.743895  -0.000000
  163        1.760711  -0.000000
  164        1.809032  -0.000000
  165        1.822273  -0.000000
  166        1.855962  -0.000000
  167        1.870307  -0.000000
  168        1.876078  -0.000000
  169        1.948393  -0.000000
  170        2.004911  -0.000000
  171        2.007310  -0.000000
  172        2.041422  -0.000000
  173        2.103777  -0.000000
  174        2.207812  -0.000000
  175        2.215502  -0.000000
  176        2.227341  -0.000000
  177        2.292601  -0.000000
  178        2.605553  -0.000000
  179        2.808884  -0.000000
  180        2.875943  -0.000000
  181        3.067006  -0.000000
  182        3.245197  -0.000000
  183        3.334621  -0.000000
  184        3.483311   0.000000

  0.3742002E-15  0.1111111E+00  0.1262379E-14  0.4444444E-01
    1      -13.750314   1.000000
    2      -12.611640   1.000000
    3      -12.607637   1.000000
    4      -12.557498   1.000000
    5      -11.736179   1.000000
    6      -11.606429   1.000000
    7      -11.453828   1.000000
    8      -11.429277   1.000000
    9      -11.261547   1.000000
   10      -11.225860   1.000000
   11      -11.153917   1.000000
   12      -10.925020   1.000000
   13      -10.873912   1.000000
   14      -10.510866   1.000000
   15      -10.499685   1.000000
   16      -10.468751   1.000000
   17      -10.226339   1.000000
   18       -9.968831   1.000000
   19       -9.967391   1.000000
   20       -9.864220   1.000000
   21       -9.554951   1.000000
   22       -9.511450   1.000000
   23       -9.508498   1.000000
   24       -9.355754   1.000000
   25       -9.050502   1.000000
   26       -8.808740   1.000000
   27       -8.742645   1.000000
   28       -8.555496   1.000000
   29       -8.276734   1.000000
   30       -8.201277   1.000000
   31       -7.842472   1.000000
   32       -7.724440   1.000000
   33       -7.675482   1.000000
   34       -7.654895   1.000000
   35       -7.559811   1.000000
   36       -7.180259   1.000000
   37       -7.111941   1.000000
   38       -6.869180   1.000000
   39       -6.739287   1.000000
   40       -6.553730   1.000000
   41       -6.500159   1.000000
   42       -6.467411   1.000000
   43       -6.462189   1.000000
   44       -6.413312   1.000000
   45       -6.370837   1.000000
   46       -6.281440   1.000000
   47       -6.242281   1.000000
   48       -6.115556   1.000000
   49       -6.042687   1.000000
   50       -6.023570   1.000000
   51       -5.923264   1.000000
   52       -5.777033   1.000000
   53       -5.625432   1.000000
   54       -5.623009   1.000000
   55       -5.478970   1.000000
   56       -5.467792   1.000000
   57       -5.361766   1.000000
   58       -5.359853   1.000000
   59       -5.259763   1.000000
   60       -5.090465   1.000000
   61       -5.078721   1.000000
   62       -5.017310   1.000000
   63       -4.965903   1.000000
   64       -4.801115   1.000000
   65       -4.600239   1.000000
   66       -4.554150   1.000000
   67       -4.484452   1.000000
   68       -4.444777   1.000000
   69       -4.417904   1.000000
   70       -4.382841   1.000000
   71       -4.326908   1.000000
   72       -4.216218   1.000000
   73       -4.180096   1.000000
   74       -4.074096   1.000000
   75       -3.969650   1.000000
   76       -3.931162   1.000000
   77       -3.887060   1.000000
   78       -3.876318   1.000000
   79       -3.845166   1.000000
   80       -3.820376   1.000000
   81       -3.788311   1.000000
   82       -3.786219   1.000000
   83       -3.737379   1.000000
   84       -3.636455   1.000000
   85       -3.580379   1.000000
   86       -3.577683   1.000000
   87       -3.490323   1.000000
   88       -3.457797   1.000000
   89       -3.371536   1.000000
   90       -3.335815   1.000000
   91       -3.323235   1.000000
   92       -3.103498   1.000000
   93       -3.068018   1.000000
   94       -2.904560   1.000000
   95       -2.837129   1.000000
   96       -2.807660   1.000000
   97       -2.761902   1.000000
   98       -2.618810   1.000000
   99       -2.581271   1.000000
  100       -2.555242   1.000000
  101       -2.518645   1.000000
  102       -2.465505   1.000000
  103       -2.389921   1.000000
  104       -2.312688   1.000000
  105       -2.250925   1.000000
  106       -2.168117   1.000000
  107       -2.156720   1.000000
  108       -2.063996   1.000000
  109       -2.058151   1.000000
  110       -1.988010   1.000000
  111       -1.936311   1.000000
  112       -1.918200   1.000000
  113       -1.841115   1.000000
  114       -1.736251   1.000000
  115       -1.729717   1.000000
  116       -1.545633   1.000000
  117       -1.491944   1.000000
  118       -1.405069   1.000000
  119       -1.388319   1.000000
  120       -1.223835   1.000000
  121       -1.219310   1.000000
  122       -1.051164   1.000000
  123       -0.965252   1.000000
  124       -0.860414   1.000000
  125       -0.773308   1.000000
  126       -0.622187   1.000000
  127       -0.488503   1.000000
  128       -0.485388   1.000000
  129       -0.336307   1.000000
  130       -0.141077   1.000000
  131       -0.125137   1.000000
  132       -0.036431   1.000000
  133       -0.003595   1.000000
  134        0.144039   1.000000
  135        0.280566   1.000000
  136        0.288091   1.000000
  137        0.383367   1.000075
  138        0.407907   1.000281
  139        0.456927   1.002655
  140        0.501590   1.012320
  141        0.587941   1.024495
  142        0.603618   0.998973
  143        0.625682   0.927328
  144        0.778669  -0.013627
  145        0.785876  -0.023537
  146        0.811670  -0.035406
  147        0.902869  -0.004690
  148        0.976481  -0.000169
  149        0.986949  -0.000095
  150        1.192782  -0.000000
  151        1.233210  -0.000000
  152        1.282440  -0.000000
  153        1.324583  -0.000000
  154        1.324734  -0.000000
  155        1.418724  -0.000000
  156        1.466519  -0.000000
  157        1.504261  -0.000000
  158        1.514659  -0.000000
  159        1.521151  -0.000000
  160        1.640049  -0.000000
  161        1.650010  -0.000000
  162        1.670125  -0.000000
  163        1.681991  -0.000000
  164        1.693966  -0.000000
  165        1.786848  -0.000000
  166        1.830324  -0.000000
  167        1.855511  -0.000000
  168        1.891253  -0.000000
  169        1.953644  -0.000000
  170        1.974851  -0.000000
  171        1.982327  -0.000000
  172        2.017825  -0.000000
  173        2.030390  -0.000000
  174        2.077356  -0.000000
  175        2.101320  -0.000000
  176        2.160420  -0.000000
  177        2.195873  -0.000000
  178        2.234913  -0.000000
  179        2.286514  -0.000000
  180        2.412835  -0.000000
  181        2.432531  -0.000000
  182        2.604748  -0.000000
  183        2.806435  -0.000000
  184        3.031690  -0.000000

  0.2000000E+00  0.1111111E+00  0.1262379E-14  0.4444444E-01
    1      -13.702204   1.000000
    2      -13.002351   1.000000
    3      -12.531898   1.000000
    4      -12.133030   1.000000
    5      -11.885769   1.000000
    6      -11.718294   1.000000
    7      -11.518524   1.000000
    8      -11.214650   1.000000
    9      -11.187629   1.000000
   10      -11.174609   1.000000
   11      -11.056812   1.000000
   12      -10.978239   1.000000
   13      -10.780483   1.000000
   14      -10.591225   1.000000
   15      -10.567952   1.000000
   16      -10.483758   1.000000
   17      -10.400965   1.000000
   18      -10.257231   1.000000
   19       -9.977229   1.000000
   20       -9.870752   1.000000
   21       -9.518173   1.000000
   22       -9.419385   1.000000
   23       -9.356520   1.000000
   24       -9.264408   1.000000
   25       -9.105792   1.000000
   26       -8.988433   1.000000
   27       -8.569971   1.000000
   28       -8.350498   1.000000
   29       -8.215817   1.000000
   30       -8.144144   1.000000
   31       -8.037183   1.000000
   32       -7.775698   1.000000
   33       -7.652396   1.000000
   34       -7.564422   1.000000
   35       -7.427464   1.000000
   36       -7.386827   1.000000
   37       -7.079816   1.000000
   38       -6.933467   1.000000
   39       -6.900951   1.000000
   40       -6.663655   1.000000
   41       -6.610470   1.000000
   42       -6.522377   1.000000
   43       -6.495383   1.000000
   44       -6.433819   1.000000
   45       -6.414227   1.000000
   46       -6.398782   1.000000
   47       -6.130665   1.000000
   48       -6.018358   1.000000
   49       -5.966239   1.000000
   50       -5.884796   1.000000
   51       -5.765698   1.000000
   52       -5.739676   1.000000
   53       -5.701556   1.000000
   54       -5.578446   1.000000
   55       -5.451896   1.000000
   56       -5.361363   1.000000
   57       -5.312765   1.000000
   58       -5.291885   1.000000
   59       -5.252388   1.000000
   60       -5.139087   1.000000
   61       -5.091223   1.000000
   62       -5.063128   1.000000
   63       -4.974144   1.000000
   64       -4.838922   1.000000
   65       -4.633280   1.000000
   66       -4.546501   1.000000
   67       -4.516927   1.000000
   68       -4.452681   1.000000
   69       -4.393840   1.000000
   70       -4.373155   1.000000
   71       -4.361337   1.000000
   72       -4.168239   1.000000
   73       -4.140431   1.000000
   74       -4.047461   1.000000
   75       -3.972684   1.000000
   76       -3.954605   1.000000
   77       -3.938722   1.000000
   78       -3.926707   1.000000
   79       -3.866018   1.000000
   80       -3.831560   1.000000
   81       -3.818216   1.000000
   82       -3.766134   1.000000
   83       -3.691676   1.000000
   84       -3.646023   1.000000
   85       -3.635909   1.000000
   86       -3.489091   1.000000
   87       -3.456416   1.000000
   88       -3.413866   1.000000
   89       -3.407301   1.000000
   90       -3.324088   1.000000
   91       -3.245199   1.000000
   92       -3.130333   1.000000
   93       -3.037898   1.000000
   94       -2.984504   1.000000
   95       -2.923380   1.000000
   96       -2.831310   1.000000
   97       -2.784197   1.000000
   98       -2.767837   1.000000
   99       -2.649953   1.000000
  100       -2.598456   1.000000
  101       -2.552839   1.000000
  102       -2.427848   1.000000
  103       -2.336610   1.000000
  104       -2.317226   1.000000
  105       -2.276392   1.000000
  106       -2.132904   1.000000
  107       -2.061795   1.000000
  108       -2.020962   1.000000
  109       -1.963607   1.000000
  110       -1.948585   1.000000
  111       -1.891540   1.000000
  112       -1.828525   1.000000
  113       -1.793856   1.000000
  114       -1.707849   1.000000
  115       -1.695998   1.000000
  116       -1.562461   1.000000
  117       -1.547588   1.000000
  118       -1.468599   1.000000
  119       -1.270770   1.000000
  120       -1.222174   1.000000
  121       -1.161448   1.000000
  122       -1.120653   1.000000
  123       -1.062452   1.000000
  124       -0.863903   1.000000
  125       -0.825981   1.000000
  126       -0.717308   1.000000
  127       -0.595142   1.000000
  128       -0.519982   1.000000
  129       -0.305037   1.000000
  130       -0.236507   1.000000
  131       -0.099614   1.000000
  132       -0.053986   1.000000
  133        0.017513   1.000000
  134        0.157175   1.000000
  135        0.189731   1.000000
  136        0.237597   1.000000
  137        0.298648   1.000000
  138        0.341902   1.000006
  139        0.404592   1.000237
  140        0.539450   1.028580
  141        0.646274   0.817185
  142        0.679457   0.566506
  143        0.701454   0.381884
  144        0.725574   0.201186
  145        0.832140  -0.029896
  146        0.836008  -0.028242
  147        0.868756  -0.013894
  148        1.047834  -0.000002
  149        1.069706  -0.000000
  150        1.107593  -0.000000
  151        1.242469  -0.000000
  152        1.264862  -0.000000
  153        1.325991  -0.000000
  154        1.416116  -0.000000
  155        1.497223  -0.000000
  156        1.533992  -0.000000
  157        1.540734  -0.000000