 running on   72 total cores
 distrk:  each k-point on   72 cores,    1 groups
 distr:  one band on    9 cores,    8 groups
 using from now: INCAR     
 vasp.5.4.4.18Apr17-6-g9f103f2a35 (build Dec  7 2020 12:43:57) complex           
 POSCAR found type information on POSCAR  Mo V  B  H 
 POSCAR found :  4 types and      75 ions
 scaLAPACK will be used

 ----------------------------------------------------------------------------- 
|                                                                             |
|  ADVICE TO THIS USER RUNNING 'VASP/VAMP'   (HEAR YOUR MASTER'S VOICE ...):  |
|                                                                             |
|      You enforced a specific xc-type in the INCAR file,                     |
|      a different type was found on the POTCAR file                          |
|          I HOPE YOU KNOW, WHAT YOU ARE  DOING                               |
|                                                                             |
 ----------------------------------------------------------------------------- 

 LDA part: xc-table for Pade appr. of Perdew
 POSCAR, INCAR and KPOINTS ok, starting setup
 resort distribution
 resort distribution
 resort distribution
 resort distribution
 resort distribution
 resort distribution
 resort distribution
 resort distribution
 resort distribution
 resort distribution
 resort distribution
 resort distribution
 resort distribution
 resort distribution
 resort distribution
 resort distribution
 resort distribution
 resort distribution
 resort distribution
 resort distribution
 resort distribution
 resort distribution
 resort distribution
 resort distribution
 resort distribution
 resort distribution
 resort distribution
 resort distribution
 resort distribution
 resort distribution
 resort distribution
 resort distribution
 resort distribution
 resort distribution
 resort distribution
 resort distribution
 resort distribution
 resort distribution
 resort distribution
 resort distribution
 resort distribution
 resort distribution
 resort distribution
 resort distribution
 resort distribution
 resort distribution
 resort distribution
 resort distribution
 resort distribution
 resort distribution
 resort distribution
 resort distribution
 resort distribution
 resort distribution
 resort distribution
 resort distribution
 resort distribution
 resort distribution
 resort distribution
 resort distribution
 resort distribution
 resort distribution
 resort distribution
 resort distribution
 resort distribution
 resort distribution
 resort distribution
 resort distribution
 resort distribution
 resort distribution
 resort distribution
 resort distribution
 FFT: planning ...
 WAVECAR not read
 augmentation electrons   285.03524981364365     
 soft         electrons   0.0000000000000000     
 augmentation electrons   285.03524981364365     
 soft         electrons   0.0000000000000000     
 augmentation electrons   285.03524981364365     
 soft         electrons   0.0000000000000000     
 augmentation electrons   285.03524981364365     
 soft         electrons   0.0000000000000000     
 augmentation electrons   285.03524981364365     
 soft         electrons   0.0000000000000000     
 augmentation electrons   285.03524981364365     
 soft         electrons   0.0000000000000000     
 augmentation electrons   285.03524981364365     
 soft         electrons   0.0000000000000000     
 augmentation electrons   285.03524981364365     
 soft         electrons   0.0000000000000000     
 augmentation electrons   285.03524981364365     
 soft         electrons   0.0000000000000000     
 augmentation electrons   285.03524981364365     
 soft         electrons   0.0000000000000000     
 augmentation electrons   285.03524981364365     
 soft         electrons   0.0000000000000000     
 augmentation electrons   285.03524981364365     
 soft         electrons   0.0000000000000000     
 augmentation electrons   285.03524981364365     
 soft         electrons   0.0000000000000000     
 augmentation electrons   285.03524981364365     
 soft         electrons   0.0000000000000000     
 augmentation electrons   285.03524981364365     
 soft         electrons   0.0000000000000000     
 augmentation electrons   285.03524981364365     
 soft         electrons   0.0000000000000000     
 augmentation electrons   285.03524981364365     
 soft         electrons   0.0000000000000000     
 augmentation electrons   285.03524981364365     
 soft         electrons   0.0000000000000000     
 augmentation electrons   285.03524981364365     
 soft         electrons   0.0000000000000000     
 augmentation electrons   285.03524981364365     
 soft         electrons   0.0000000000000000     
 augmentation electrons   285.03524981364365     
 soft         electrons   0.0000000000000000     
 augmentation electrons   285.03524981364365     
 soft         electrons   0.0000000000000000     
 augmentation electrons   285.03524981364365     
 soft         electrons   0.0000000000000000     
 augmentation electrons   285.03524981364365     
 soft         electrons   0.0000000000000000     
 augmentation electrons   285.03524981364365     
 soft         electrons   0.0000000000000000     
 augmentation electrons   285.03524981364365     
 soft         electrons   0.0000000000000000     
 augmentation electrons   285.03524981364365     
 soft         electrons   0.0000000000000000     
 augmentation electrons   285.03524981364365     
 soft         electrons   0.0000000000000000     
 augmentation electrons   285.03524981364365     
 soft         electrons   0.0000000000000000     
 augmentation electrons   285.03524981364365     
 soft         electrons   0.0000000000000000     
 augmentation electrons   285.03524981364365     
 soft         electrons   0.0000000000000000     
 augmentation electrons   285.03524981364365     
 soft         electrons   0.0000000000000000     
 augmentation electrons   285.03524981364365     
 soft         electrons   0.0000000000000000     
 augmentation electrons   285.03524981364365     
 soft         electrons   0.0000000000000000     
 augmentation electrons   285.03524981364365     
 soft         electrons   0.0000000000000000     
 augmentation electrons   285.03524981364365     
 soft         electrons   0.0000000000000000     
 augmentation electrons   285.03524981364365     
 soft         electrons   0.0000000000000000     
 augmentation electrons   285.03524981364365     
 soft         electrons   0.0000000000000000     
 augmentation electrons   285.03524981364365     
 soft         electrons   0.0000000000000000     
 augmentation electrons   285.03524981364365     
 soft         electrons   0.0000000000000000     
 augmentation electrons   285.03524981364365     
 soft         electrons   0.0000000000000000     
 augmentation electrons   285.03524981364365     
 soft         electrons   0.0000000000000000     
 augmentation electrons   285.03524981364365     
 soft         electrons   0.0000000000000000     
 augmentation electrons   285.03524981364365     
 soft         electrons   0.0000000000000000     
 augmentation electrons   285.03524981364365     
 soft         electrons   0.0000000000000000     
 augmentation electrons   285.03524981364365     
 soft         electrons   0.0000000000000000     
 augmentation electrons   285.03524981364365     
 soft         electrons   0.0000000000000000     
 augmentation electrons   285.03524981364365     
 soft         electrons   0.0000000000000000     
 augmentation electrons   285.03524981364365     
 soft         electrons   0.0000000000000000     
 augmentation electrons   285.03524981364365     
 soft         electrons   0.0000000000000000     
 augmentation electrons   285.03524981364365     
 soft         electrons   0.0000000000000000     
 augmentation electrons   285.03524981364365     
 soft         electrons   0.0000000000000000     
 augmentation electrons   285.03524981364365     
 soft         electrons   0.0000000000000000     
 augmentation electrons   285.03524981364365     
 soft         electrons   0.0000000000000000     
 augmentation electrons   285.03524981364365     
 soft         electrons   0.0000000000000000     
 augmentation electrons   285.03524981364365     
 soft         electrons   0.0000000000000000     
 augmentation electrons   285.03524981364365     
 soft         electrons   0.0000000000000000     
 augmentation electrons   285.03524981364365     
 soft         electrons   0.0000000000000000     
 augmentation electrons   285.03524981364365     
 soft         electrons   0.0000000000000000     
 augmentation electrons   285.03524981364365     
 soft         electrons   0.0000000000000000     
 augmentation electrons   285.03524981364365     
 soft         electrons   0.0000000000000000     
 augmentation electrons   285.03524981364365     
 soft         electrons   0.0000000000000000     
 augmentation electrons   285.03524981364365     
 soft         electrons   0.0000000000000000     
 augmentation electrons   285.03524981364365     
 soft         electrons   0.0000000000000000     
 augmentation electrons   285.03524981364365     
 soft         electrons   0.0000000000000000     
 augmentation electrons   285.03524981364365     
 soft         electrons   0.0000000000000000     
 augmentation electrons   285.03524981364365     
 soft         electrons   0.0000000000000000     
 augmentation electrons   285.03524981364365     
 soft         electrons   0.0000000000000000     
 augmentation electrons   285.03524981364365     
 soft         electrons   0.0000000000000000     
 augmentation electrons   285.03524981364365     
 soft         electrons   0.0000000000000000     
 augmentation electrons   285.03524981364365     
 soft         electrons   0.0000000000000000     
 augmentation electrons   285.03524981364365     
 soft         electrons   0.0000000000000000     
 total        electrons   285.03524981364365     
 total        electrons   285.03524981364365     
 total        electrons   285.03524981364365     
 total        electrons   285.03524981364365     
 total        electrons   285.03524981364365     
 total        electrons   285.03524981364365     
 total        electrons   285.03524981364365     
 total        electrons   285.03524981364365     
 total        electrons   285.03524981364365     
 total        electrons   285.03524981364365     
 total        electrons   285.03524981364365     
 total        electrons   285.03524981364365     
 total        electrons   285.03524981364365     
 total        electrons   285.03524981364365     
 total        electrons   285.03524981364365     
 total        electrons   285.03524981364365     
 total        electrons   285.03524981364365     
 total        electrons   285.03524981364365     
 total        electrons   285.03524981364365     
 total        electrons   285.03524981364365     
 total        electrons   285.03524981364365     
 total        electrons   285.03524981364365     
 total        electrons   285.03524981364365     
 total        electrons   285.03524981364365     
 total        electrons   285.03524981364365     
 total        electrons   285.03524981364365     
 total        electrons   285.03524981364365     
 total        electrons   285.03524981364365     
 total        electrons   285.03524981364365     
 total        electrons   285.03524981364365     
 total        electrons   285.03524981364365     
 total        electrons   285.03524981364365     
 total        electrons   285.03524981364365     
 total        electrons   285.03524981364365     
 total        electrons   285.03524981364365     
 total        electrons   285.03524981364365     
 total        electrons   285.03524981364365     
 total        electrons   285.03524981364365     
 total        electrons   285.03524981364365     
 total        electrons   285.03524981364365     
 total        electrons   285.03524981364365     
 total        electrons   285.03524981364365     
 total        electrons   285.03524981364365     
 total        electrons   285.03524981364365     
 total        electrons   285.03524981364365     
 total        electrons   285.03524981364365     
 total        electrons   285.03524981364365     
 total        electrons   285.03524981364365     
 total        electrons   285.03524981364365     
 total        electrons   285.03524981364365     
 total        electrons   285.03524981364365     
 total        electrons   285.03524981364365     
 total        electrons   285.03524981364365     
 total        electrons   285.03524981364365     
 total        electrons   285.03524981364365     
 total        electrons   285.03524981364365     
 total        electrons   285.03524981364365     
 total        electrons   285.03524981364365     
 total        electrons   285.03524981364365     
 total        electrons   285.03524981364365     
 total        electrons   285.03524981364365     
 total        electrons   285.03524981364365     
 total        electrons   285.03524981364365     
 total        electrons   285.03524981364365     
 total        electrons   285.03524981364365     
 total        electrons   285.03524981364365     
 total        electrons   285.03524981364365     
 total        electrons   285.03524981364365     
 total        electrons   285.03524981364365     
 total        electrons   285.03524981364365     
 total        electrons   285.03524981364365     
 total        electrons   285.03524981364365     
 augmentation electrons   1046.9897952800966     
 soft         electrons   0.0000000000000000     
 total        electrons   1046.9897952800966     
 augmentation electrons   1046.9897952800966     
 soft         electrons   0.0000000000000000     
 total        electrons   1046.9897952800966     
 augmentation electrons   1046.9897952800966     
 soft         electrons   0.0000000000000000     
 total        electrons   1046.9897952800966     
 augmentation electrons   1046.9897952800966     
 soft         electrons   0.0000000000000000     
 total        electrons   1046.9897952800966     
 augmentation electrons   1046.9897952800966     
 soft         electrons   0.0000000000000000     
 total        electrons   1046.9897952800966     
 augmentation electrons   1046.9897952800966     
 soft         electrons   0.0000000000000000     
 total        electrons   1046.9897952800966     
 augmentation electrons   1046.9897952800966     
 soft         electrons   0.0000000000000000     
 total        electrons   1046.9897952800966     
 augmentation electrons   1046.9897952800966     
 soft         electrons   0.0000000000000000     
 augmentation electrons   1046.9897952800966     
 soft         electrons   0.0000000000000000     
 total        electrons   1046.9897952800966     
 augmentation electrons   1046.9897952800966     
 soft         electrons   0.0000000000000000     
 total        electrons   1046.9897952800966     
 augmentation electrons   1046.9897952800966     
 soft         electrons   0.0000000000000000     
 total        electrons   1046.9897952800966     
 augmentation electrons   1046.9897952800966     
 soft         electrons   0.0000000000000000     
 total        electrons   1046.9897952800966     
 augmentation electrons   1046.9897952800966     
 soft         electrons   0.0000000000000000     
 total        electrons   1046.9897952800966     
 augmentation electrons   1046.9897952800966     
 soft         electrons   0.0000000000000000     
 total        electrons   1046.9897952800966     
 augmentation electrons   1046.9897952800966     
 soft         electrons   0.0000000000000000     
 total        electrons   1046.9897952800966     
 augmentation electrons   1046.9897952800966     
 soft         electrons   0.0000000000000000     
 total        electrons   1046.9897952800966     
 augmentation electrons   1046.9897952800966     
 soft         electrons   0.0000000000000000     
 total        electrons   1046.9897952800966     
 augmentation electrons   1046.9897952800966     
 soft         electrons   0.0000000000000000     
 augmentation electrons   1046.9897952800966     
 soft         electrons   0.0000000000000000     
 augmentation electrons   1046.9897952800966     
 soft         electrons   0.0000000000000000     
 augmentation electrons   1046.9897952800966     
 soft         electrons   0.0000000000000000     
 total        electrons   1046.9897952800966     
 augmentation electrons   1046.9897952800966     
 soft         electrons   0.0000000000000000     
 total        electrons   1046.9897952800966     
 augmentation electrons   1046.9897952800966     
 soft         electrons   0.0000000000000000     
 total        electrons   1046.9897952800966     
 augmentation electrons   1046.9897952800966     
 soft         electrons   0.0000000000000000     
 total        electrons   1046.9897952800966     
 augmentation electrons   1046.9897952800966     
 soft         electrons   0.0000000000000000     
 augmentation electrons   1046.9897952800966     
 soft         electrons   0.0000000000000000     
 augmentation electrons   1046.9897952800966     
 soft         electrons   0.0000000000000000     
 total        electrons   1046.9897952800966     
 augmentation electrons   1046.9897952800966     
 soft         electrons   0.0000000000000000     
 total        electrons   1046.9897952800966     
 augmentation electrons   1046.9897952800966     
 soft         electrons   0.0000000000000000     
 total        electrons   1046.9897952800966     
 augmentation electrons   1046.9897952800966     
 soft         electrons   0.0000000000000000     
 augmentation electrons   1046.9897952800966     
 soft         electrons   0.0000000000000000     
 augmentation electrons   1046.9897952800966     
 soft         electrons   0.0000000000000000     
 total        electrons   1046.9897952800966     
 augmentation electrons   1046.9897952800966     
 soft         electrons   0.0000000000000000     
 total        electrons   1046.9897952800966     
 augmentation electrons   1046.9897952800966     
 soft         electrons   0.0000000000000000     
 total        electrons   1046.9897952800966     
 augmentation electrons   1046.9897952800966     
 soft         electrons   0.0000000000000000     
 augmentation electrons   1046.9897952800966     
 soft         electrons   0.0000000000000000     
 total        electrons   1046.9897952800966     
 augmentation electrons   1046.9897952800966     
 soft         electrons   0.0000000000000000     
 total        electrons   1046.9897952800966     
 augmentation electrons   1046.9897952800966     
 soft         electrons   0.0000000000000000     
 augmentation electrons   1046.9897952800966     
 soft         electrons   0.0000000000000000     
 total        electrons   1046.9897952800966     
 augmentation electrons   1046.9897952800966     
 soft         electrons   0.0000000000000000     
 total        electrons   1046.9897952800966     
 augmentation electrons   1046.9897952800966     
 soft         electrons   0.0000000000000000     
 total        electrons   1046.9897952800966     
 augmentation electrons   1046.9897952800966     
 soft         electrons   0.0000000000000000     
 total        electrons   1046.9897952800966     
 augmentation electrons   1046.9897952800966     
 soft         electrons   0.0000000000000000     
 total        electrons   1046.9897952800966     
 augmentation electrons   1046.9897952800966     
 soft         electrons   0.0000000000000000     
 total        electrons   1046.9897952800966     
 augmentation electrons   1046.9897952800966     
 soft         electrons   0.0000000000000000     
 augmentation electrons   1046.9897952800966     
 soft         electrons   0.0000000000000000     
 total        electrons   1046.9897952800966     
 augmentation electrons   1046.9897952800966     
 soft         electrons   0.0000000000000000     
 total        electrons   1046.9897952800966     
 augmentation electrons   1046.9897952800966     
 soft         electrons   0.0000000000000000     
 augmentation electrons   1046.9897952800966     
 soft         electrons   0.0000000000000000     
 total        electrons   1046.9897952800966     
 augmentation electrons   1046.9897952800966     
 soft         electrons   0.0000000000000000     
 total        electrons   1046.9897952800966     
 augmentation electrons   1046.9897952800966     
 soft         electrons   0.0000000000000000     
 total        electrons   1046.9897952800966     
 augmentation electrons   1046.9897952800966     
 soft         electrons   0.0000000000000000     
 total        electrons   1046.9897952800966     
 augmentation electrons   1046.9897952800966     
 soft         electrons   0.0000000000000000     
 total        electrons   1046.9897952800966     
 augmentation electrons   1046.9897952800966     
 soft         electrons   0.0000000000000000     
 augmentation electrons   1046.9897952800966     
 soft         electrons   0.0000000000000000     
 augmentation electrons   1046.9897952800966     
 soft         electrons   0.0000000000000000     
 total        electrons   1046.9897952800966     
 augmentation electrons   1046.9897952800966     
 soft         electrons   0.0000000000000000     
 total        electrons   1046.9897952800966     
 augmentation electrons   1046.9897952800966     
 soft         electrons   0.0000000000000000     
 total        electrons   1046.9897952800966     
 augmentation electrons   1046.9897952800966     
 soft         electrons   0.0000000000000000     
 total        electrons   1046.9897952800966     
 augmentation electrons   1046.9897952800966     
 soft         electrons   0.0000000000000000     
 augmentation electrons   1046.9897952800966     
 soft         electrons   0.0000000000000000     
 augmentation electrons   1046.9897952800966     
 soft         electrons   0.0000000000000000     
 augmentation electrons   1046.9897952800966     
 soft         electrons   0.0000000000000000     
 total        electrons   1046.9897952800966     
 augmentation electrons   1046.9897952800966     
 soft         electrons   0.0000000000000000     
 total        electrons   1046.9897952800966     
 augmentation electrons   1046.9897952800966     
 soft         electrons   0.0000000000000000     
 total        electrons   1046.9897952800966     
 augmentation electrons   1046.9897952800966     
 soft         electrons   0.0000000000000000     
 augmentation electrons   1046.9897952800966     
 soft         electrons   0.0000000000000000     
 total        electrons   1046.9897952800966     
 augmentation electrons   1046.9897952800966     
 soft         electrons   0.0000000000000000     
 total        electrons   1046.9897952800966     
 augmentation electrons   1046.9897952800966     
 soft         electrons   0.0000000000000000     
 total        electrons   1046.9897952800966     
 augmentation electrons   1046.9897952800966     
 soft         electrons   0.0000000000000000     
 total        electrons   1046.9897952800966     
 augmentation electrons   1046.9897952800966     
 soft         electrons   0.0000000000000000     
 total        electrons   1046.9897952800966     
 augmentation electrons   1046.9897952800966     
 soft         electrons   0.0000000000000000     
 total        electrons   1046.9897952800966     
 total        electrons   1046.9897952800966     
 total        electrons   1046.9897952800966     
 total        electrons   1046.9897952800966     
 total        electrons   1046.9897952800966     
 total        electrons   1046.9897952800966     
 total        electrons   1046.9897952800966     
 total        electrons   1046.9897952800966     
 total        electrons   1046.9897952800966     
 total        electrons   1046.9897952800966     
 total        electrons   1046.9897952800966     
 total        electrons   1046.9897952800966     
 total        electrons   1046.9897952800966     
 total        electrons   1046.9897952800966     
 total        electrons   1046.9897952800966     
 total        electrons   1046.9897952800966     
 total        electrons   1046.9897952800966     
 total        electrons   1046.9897952800966     
 total        electrons   1046.9897952800966     
 entering main loop
       N       E                     dE             d eps       ncg     rms          rms(c)
DAV:   1     0.249734936718E+04    0.24973E+04   -0.10362E+05  8472   0.127E+03
DAV:   2    -0.188919494684E+03   -0.26863E+04   -0.25020E+04  9720   0.314E+02
DAV:   3    -0.626747018299E+03   -0.43783E+03   -0.41553E+03 11840   0.146E+02
DAV:   4    -0.664983187476E+03   -0.38236E+02   -0.36427E+02 13728   0.472E+01
DAV:   5    -0.667498113323E+03   -0.25149E+01   -0.24207E+01 14384   0.114E+01    0.146E+02
RMM:   6    -0.618065314238E+03    0.49433E+02   -0.11501E+03 13333   0.879E+01    0.696E+01
RMM:   7    -0.673813050450E+03   -0.55748E+02   -0.34339E+02 10801   0.525E+01    0.536E+01
RMM:   8    -0.594332575926E+03    0.79480E+02   -0.10590E+02 10385   0.297E+01    0.333E+01
RMM:   9    -0.582724519560E+03    0.11608E+02   -0.42303E+01 12731   0.140E+01    0.281E+01
RMM:  10    -0.566441135508E+03    0.16283E+02   -0.20679E+01 10116   0.145E+01    0.180E+01
RMM:  11    -0.566564853196E+03   -0.12372E+00   -0.69992E+00 11923   0.562E+00    0.154E+01
RMM:  12    -0.566654580039E+03   -0.89727E-01   -0.13645E+00 13142   0.183E+00    0.145E+01
RMM:  13    -0.566422996902E+03    0.23158E+00   -0.95987E-01 10732   0.287E+00    0.129E+01
RMM:  14    -0.566672908640E+03   -0.24991E+00   -0.73118E+00  9622   0.888E+00    0.929E+00
RMM:  15    -0.565797552624E+03    0.87536E+00   -0.10763E+00 10125   0.362E+00    0.492E+00
RMM:  16    -0.565619237674E+03    0.17831E+00   -0.13675E+00 12860   0.219E+00    0.405E+00
RMM:  17    -0.565478504575E+03    0.14073E+00   -0.69559E-01 12502   0.184E+00    0.234E+00
RMM:  18    -0.565461012067E+03    0.17493E-01   -0.31078E-01 13077   0.984E-01    0.138E+00
RMM:  19    -0.565453729004E+03    0.72831E-02   -0.76619E-02 10670   0.752E-01    0.114E+00
RMM:  20    -0.565446124483E+03    0.76045E-02   -0.41564E-02 11585   0.524E-01    0.824E-01
RMM:  21    -0.565436285260E+03    0.98392E-02   -0.25837E-02 12094   0.351E-01    0.464E-01
RMM:  22    -0.565433873481E+03    0.24118E-02   -0.10883E-02 12797   0.186E-01    0.237E-01
RMM:  23    -0.565433526673E+03    0.34681E-03   -0.42162E-03 11550   0.147E-01    0.235E-01
RMM:  24    -0.565432566579E+03    0.96009E-03   -0.18773E-03 11604   0.105E-01    0.114E-01
RMM:  25    -0.565432174299E+03    0.39228E-03   -0.18784E-03 12506   0.776E-02    0.903E-02
RMM:  26    -0.565432366465E+03   -0.19217E-03   -0.84641E-04 12933   0.543E-02    0.461E-02
RMM:  27    -0.565433005913E+03   -0.63945E-03   -0.68458E-04 10857   0.556E-02    0.819E-02
RMM:  28    -0.565433392973E+03   -0.38706E-03   -0.45497E-04 10438   0.463E-02    0.441E-02
RMM:  29    -0.565433488894E+03   -0.95921E-04   -0.21286E-04 12168   0.251E-02    0.215E-02
RMM:  30    -0.565433625939E+03   -0.13705E-03   -0.77843E-05 11563   0.107E-02    0.153E-02
RMM:  31    -0.565433667664E+03   -0.41725E-04   -0.44281E-05  9326   0.103E-02    0.129E-02
RMM:  32    -0.565433760119E+03   -0.92456E-04   -0.13877E-05  8692   0.584E-03    0.921E-03
RMM:  33    -0.565433953509E+03   -0.19339E-03   -0.17230E-05  8475   0.949E-03    0.816E-03
RMM:  34    -0.565434102670E+03   -0.14916E-03   -0.12169E-05  8149   0.607E-03    0.479E-03
RMM:  35    -0.565434190721E+03   -0.88051E-04   -0.10922E-05  8547   0.726E-03    0.114E-02
RMM:  36    -0.565434275706E+03   -0.84985E-04   -0.14250E-05  8248   0.107E-02    0.672E-03
RMM:  37    -0.565434312698E+03   -0.36991E-04   -0.56120E-06  7641   0.335E-03    0.235E-03
RMM:  38    -0.565434319476E+03   -0.67783E-05   -0.88658E-07  6480   0.228E-03    0.218E-03
RMM:  39    -0.565434325870E+03   -0.63943E-05   -0.68201E-07  6061   0.203E-03    0.149E-03
RMM:  40    -0.565434331292E+03   -0.54214E-05   -0.69928E-07  6038   0.174E-03    0.109E-03
RMM:  41    -0.565434332621E+03   -0.13296E-05   -0.36562E-07  5614   0.161E-03    0.557E-04
RMM:  42    -0.565434333008E+03   -0.38687E-06   -0.20068E-07  4061   0.956E-04
   1 F= -.56543433E+03 E0= -.56543603E+03  d E =0.508353E-02
 augmentation electrons   31.514640840532266     
 augmentation electrons   31.514640840532266     
 soft         electrons   253.57808142343950     
 augmentation electrons   31.514640840532266     
 soft         electrons   253.57808142343950     
 augmentation electrons   31.514640840532266     
 soft         electrons   253.57808142343950     
 augmentation electrons   31.514640840532266     
 soft         electrons   253.57808142343950     
 augmentation electrons   31.514640840532266     
 soft         electrons   253.57808142343950     
 augmentation electrons   31.514640840532266     
 soft         electrons   253.57808142343950     
 augmentation electrons   31.514640840532266     
 soft         electrons   253.57808142343950     
 augmentation electrons   31.514640840532266     
 soft         electrons   253.57808142343950     
 augmentation electrons   31.514640840532266     
 soft         electrons   253.57808142343950     
 augmentation electrons   31.514640840532266     
 soft         electrons   253.57808142343950     
 augmentation electrons   31.514640840532266     
 soft         electrons   253.57808142343950     
 augmentation electrons   31.514640840532266     
 soft         electrons   253.57808142343950     
 augmentation electrons   31.514640840532266     
 soft         electrons   253.57808142343950     
 augmentation electrons   31.514640840532266     
 soft         electrons   253.57808142343950     
 augmentation electrons   31.514640840532266     
 soft         electrons   253.57808142343950     
 augmentation electrons   31.514640840532266     
 soft         electrons   253.57808142343950     
 augmentation electrons   31.514640840532266     
 soft         electrons   253.57808142343950     
 augmentation electrons   31.514640840532266     
 soft         electrons   253.57808142343950     
 augmentation electrons   31.514640840532266     
 soft         electrons   253.57808142343950     
 augmentation electrons   31.514640840532266     
 soft         electrons   253.57808142343950     
 augmentation electrons   31.514640840532266     
 soft         electrons   253.57808142343950     
 augmentation electrons   31.514640840532266     
 soft         electrons   253.57808142343950     
 augmentation electrons   31.514640840532266     
 soft         electrons   253.57808142343950     
 augmentation electrons   31.514640840532266     
 soft         electrons   253.57808142343950     
 augmentation electrons   31.514640840532266     
 soft         electrons   253.57808142343950     
 augmentation electrons   31.514640840532266     
 soft         electrons   253.57808142343950     
 augmentation electrons   31.514640840532266     
 soft         electrons   253.57808142343950     
 augmentation electrons   31.514640840532266     
 soft         electrons   253.57808142343950     
 augmentation electrons   31.514640840532266     
 soft         electrons   253.57808142343950     
 augmentation electrons   31.514640840532266     
 soft         electrons   253.57808142343950     
 augmentation electrons   31.514640840532266     
 soft         electrons   253.57808142343950     
 augmentation electrons   31.514640840532266     
 soft         electrons   253.57808142343950     
 augmentation electrons   31.514640840532266     
 soft         electrons   253.57808142343950     
 augmentation electrons   31.514640840532266     
 soft         electrons   253.57808142343950     
 augmentation electrons   31.514640840532266     
 soft         electrons   253.57808142343950     
 augmentation electrons   31.514640840532266     
 soft         electrons   253.57808142343950     
 augmentation electrons   31.514640840532266     
 soft         electrons   253.57808142343950     
 augmentation electrons   31.514640840532266     
 soft         electrons   253.57808142343950     
 augmentation electrons   31.514640840532266     
 soft         electrons   253.57808142343950     
 augmentation electrons   31.514640840532266     
 soft         electrons   253.57808142343950     
 augmentation electrons   31.514640840532266     
 soft         electrons   253.57808142343950     
 augmentation electrons   31.514640840532266     
 soft         electrons   253.57808142343950     
 augmentation electrons   31.514640840532266     
 soft         electrons   253.57808142343950     
 augmentation electrons   31.514640840532266     
 soft         electrons   253.57808142343950     
 augmentation electrons   31.514640840532266     
 soft         electrons   253.57808142343950     
 augmentation electrons   31.514640840532266     
 soft         electrons   253.57808142343950     
 augmentation electrons   31.514640840532266     
 soft         electrons   253.57808142343950     
 augmentation electrons   31.514640840532266     
 soft         electrons   253.57808142343950     
 augmentation electrons   31.514640840532266     
 soft         electrons   253.57808142343950     
 augmentation electrons   31.514640840532266     
 soft         electrons   253.57808142343950     
 augmentation electrons   31.514640840532266     
 soft         electrons   253.57808142343950     
 augmentation electrons   31.514640840532266     
 soft         electrons   253.57808142343950     
 augmentation electrons   31.514640840532266     
 soft         electrons   253.57808142343950     
 augmentation electrons   31.514640840532266     
 soft         electrons   253.57808142343950     
 augmentation electrons   31.514640840532266     
 soft         electrons   253.57808142343950     
 augmentation electrons   31.514640840532266     
 soft         electrons   253.57808142343950     
 augmentation electrons   31.514640840532266     
 soft         electrons   253.57808142343950     
 augmentation electrons   31.514640840532266     
 soft         electrons   253.57808142343950     
 augmentation electrons   31.514640840532266     
 soft         electrons   253.57808142343950     
 augmentation electrons   31.514640840532266     
 soft         electrons   253.57808142343950     
 augmentation electrons   31.514640840532266     
 soft         electrons   253.57808142343950     
 augmentation electrons   31.514640840532266     
 soft         electrons   253.57808142343950     
 augmentation electrons   31.514640840532266     
 soft         electrons   253.57808142343950     
 augmentation electrons   31.514640840532266     
 soft         electrons   253.57808142343950     
 augmentation electrons   31.514640840532266     
 soft         electrons   253.57808142343950     
 augmentation electrons   31.514640840532266     
 soft         electrons   253.57808142343950     
 augmentation electrons   31.514640840532266     
 soft         electrons   253.57808142343950     
 augmentation electrons   31.514640840532266     
 soft         electrons   253.57808142343950     
 augmentation electrons   31.514640840532266     
 soft         electrons   253.57808142343950     
 augmentation electrons   31.514640840532266     
 soft         electrons   253.57808142343950     
 augmentation electrons   31.514640840532266     
 soft         electrons   253.57808142343950     
 soft         electrons   253.57808142343950     
 total        electrons   285.09272226397178     
 total        electrons   285.09272226397178     
 total        electrons   285.09272226397178     
 total        electrons   285.09272226397178     
 total        electrons   285.09272226397178     
 total        electrons   285.09272226397178     
 total        electrons   285.09272226397178     
 total        electrons   285.09272226397178     
 total        electrons   285.09272226397178     
 total        electrons   285.09272226397178     
 total        electrons   285.09272226397178     
 total        electrons   285.09272226397178     
 total        electrons   285.09272226397178     
 total        electrons   285.09272226397178     
 total        electrons   285.09272226397178     
 total        electrons   285.09272226397178     
 total        electrons   285.09272226397178     
 total        electrons   285.09272226397178     
 total        electrons   285.09272226397178     
 total        electrons   285.09272226397178     
 total        electrons   285.09272226397178     
 total        electrons   285.09272226397178     
 total        electrons   285.09272226397178     
 total        electrons   285.09272226397178     
 total        electrons   285.09272226397178     
 total        electrons   285.09272226397178     
 total        electrons   285.09272226397178     
 total        electrons   285.09272226397178     
 total        electrons   285.09272226397178     
 total        electrons   285.09272226397178     
 total        electrons   285.09272226397178     
 total        electrons   285.09272226397178     
 total        electrons   285.09272226397178     
 total        electrons   285.09272226397178     
 total        electrons   285.09272226397178     
 total        electrons   285.09272226397178     
 total        electrons   285.09272226397178     
 total        electrons   285.09272226397178     
 total        electrons   285.09272226397178     
 total        electrons   285.09272226397178     
 total        electrons   285.09272226397178     
 total        electrons   285.09272226397178     
 total        electrons   285.09272226397178     
 total        electrons   285.09272226397178     
 total        electrons   285.09272226397178     
 total        electrons   285.09272226397178     
 total        electrons   285.09272226397178     
 total        electrons   285.09272226397178     
 total        electrons   285.09272226397178     
 total        electrons   285.09272226397178     
 total        electrons   285.09272226397178     
 total        electrons   285.09272226397178     
 total        electrons   285.09272226397178     
 total        electrons   285.09272226397178     
 total        electrons   285.09272226397178     
 total        electrons   285.09272226397178     
 total        electrons   285.09272226397178     
 total        electrons   285.09272226397178     
 total        electrons   285.09272226397178     
 total        electrons   285.09272226397178     
 total        electrons   285.09272226397178     
 total        electrons   285.09272226397178     
 total        electrons   285.09272226397178     
 total        electrons   285.09272226397178     
 total        electrons   285.09272226397178     
 total        electrons   285.09272226397178     
 total        electrons   285.09272226397178     
 total        electrons   285.09272226397178     
 total        electrons   285.09272226397178     
 total        electrons   285.09272226397178     
 total        electrons   285.09272226397178     
 total        electrons   285.09272226397178     
Note: The following floating-point exceptions are signalling: IEEE_OVERFLOW_FLAG
Note: The following floating-point exceptions are signalling: IEEE_OVERFLOW_FLAG
Note: The following floating-point exceptions are signalling: IEEE_OVERFLOW_FLAG
Note: The following floating-point exceptions are signalling: IEEE_OVERFLOW_FLAG
Note: The following floating-point exceptions are signalling: IEEE_OVERFLOW_FLAG
Note: The following floating-point exceptions are signalling: IEEE_OVERFLOW_FLAG
Note: The following floating-point exceptions are signalling: IEEE_OVERFLOW_FLAG
Note: The following floating-point exceptions are signalling: IEEE_OVERFLOW_FLAG
Note: The following floating-point exceptions are signalling: IEEE_OVERFLOW_FLAG
Note: The following floating-point exceptions are signalling: IEEE_OVERFLOW_FLAG
Note: The following floating-point exceptions are signalling: IEEE_OVERFLOW_FLAG
Note: The following floating-point exceptions are signalling: IEEE_OVERFLOW_FLAG
Note: The following floating-point exceptions are signalling: IEEE_OVERFLOW_FLAG
Note: The following floating-point exceptions are signalling: IEEE_OVERFLOW_FLAG
Note: The following floating-point exceptions are signalling: IEEE_OVERFLOW_FLAG
Note: The following floating-point exceptions are signalling: IEEE_OVERFLOW_FLAG
Note: The following floating-point exceptions are signalling: IEEE_OVERFLOW_FLAG
Note: The following floating-point exceptions are signalling: IEEE_OVERFLOW_FLAG
Note: The following floating-point exceptions are signalling: IEEE_OVERFLOW_FLAG
Note: The following floating-point exceptions are signalling: IEEE_OVERFLOW_FLAG
Note: The following floating-point exceptions are signalling: IEEE_OVERFLOW_FLAG
Note: The following floating-point exceptions are signalling: IEEE_OVERFLOW_FLAG
Note: The following floating-point exceptions are signalling: IEEE_OVERFLOW_FLAG
Note: The following floating-point exceptions are signalling: IEEE_OVERFLOW_FLAG
Note: The following floating-point exceptions are signalling: IEEE_OVERFLOW_FLAG
Note: The following floating-point exceptions are signalling: IEEE_OVERFLOW_FLAG
Note: The following floating-point exceptions are signalling: IEEE_OVERFLOW_FLAG
Note: The following floating-point exceptions are signalling: IEEE_OVERFLOW_FLAG
Note: The following floating-point exceptions are signalling: IEEE_OVERFLOW_FLAG
Note: The following floating-point exceptions are signalling: IEEE_OVERFLOW_FLAG
Note: The following floating-point exceptions are signalling: IEEE_OVERFLOW_FLAG
Note: The following floating-point exceptions are signalling: IEEE_OVERFLOW_FLAG
Note: The following floating-point exceptions are signalling: IEEE_OVERFLOW_FLAG
Note: The following floating-point exceptions are signalling: IEEE_OVERFLOW_FLAG
Note: The following floating-point exceptions are signalling: IEEE_OVERFLOW_FLAG
Note: The following floating-point exceptions are signalling: IEEE_OVERFLOW_FLAG
Note: The following floating-point exceptions are signalling: IEEE_OVERFLOW_FLAG
Note: The following floating-point exceptions are signalling: IEEE_OVERFLOW_FLAG
Note: The following floating-point exceptions are signalling: IEEE_OVERFLOW_FLAG
Note: The following floating-point exceptions are signalling: IEEE_OVERFLOW_FLAG
Note: The following floating-point exceptions are signalling: IEEE_OVERFLOW_FLAG
Note: The following floating-point exceptions are signalling: IEEE_OVERFLOW_FLAG
Note: The following floating-point exceptions are signalling: IEEE_OVERFLOW_FLAG
Note: The following floating-point exceptions are signalling: IEEE_INVALID_FLAG IEEE_OVERFLOW_FLAG
Note: The following floating-point exceptions are signalling: IEEE_OVERFLOW_FLAG
Note: The following floating-point exceptions are signalling: IEEE_OVERFLOW_FLAG
Note: The following floating-point exceptions are signalling: IEEE_OVERFLOW_FLAG
Note: The following floating-point exceptions are signalling: IEEE_OVERFLOW_FLAG
Note: The following floating-point exceptions are signalling: IEEE_OVERFLOW_FLAG
Note: The following floating-point exceptions are signalling: IEEE_OVERFLOW_FLAG
Note: The following floating-point exceptions are signalling: IEEE_OVERFLOW_FLAG
Note: The following floating-point exceptions are signalling: IEEE_OVERFLOW_FLAG
Note: The following floating-point exceptions are signalling: IEEE_OVERFLOW_FLAG
Note: The following floating-point exceptions are signalling: IEEE_OVERFLOW_FLAG
Note: The following floating-point exceptions are signalling: IEEE_OVERFLOW_FLAG
Note: The following floating-point exceptions are signalling: IEEE_OVERFLOW_FLAG
Note: The following floating-point exceptions are signalling: IEEE_OVERFLOW_FLAG
Note: The following floating-point exceptions are signalling: IEEE_OVERFLOW_FLAG
Note: The following floating-point exceptions are signalling: IEEE_OVERFLOW_FLAG
Note: The following floating-point exceptions are signalling: IEEE_OVERFLOW_FLAG
Note: The following floating-point exceptions are signalling: IEEE_OVERFLOW_FLAG
Note: The following floating-point exceptions are signalling: IEEE_OVERFLOW_FLAG
Note: The following floating-point exceptions are signalling: IEEE_OVERFLOW_FLAG
Note: The following floating-point exceptions are signalling: IEEE_OVERFLOW_FLAG
Note: The following floating-point exceptions are signalling: IEEE_OVERFLOW_FLAG
Note: The following floating-point exceptions are signalling: IEEE_OVERFLOW_FLAG
Note: The following floating-point exceptions are signalling: IEEE_OVERFLOW_FLAG
Note: The following floating-point exceptions are signalling: IEEE_OVERFLOW_FLAG
Note: The following floating-point exceptions are signalling: IEEE_OVERFLOW_FLAG
Note: The following floating-point exceptions are signalling: IEEE_OVERFLOW_FLAG
Note: The following floating-point exceptions are signalling: IEEE_OVERFLOW_FLAG
Note: The following floating-point exceptions are signalling: IEEE_OVERFLOW_FLAG
