   51   51    1    1
  0.2316787E+02  0.8645320E-09  0.6085000E-09  0.2593596E-08  0.5000000E-15
   1.0000000000000000E-004
  CAR 
 Name                                    
    191    149    128

  0.3742002E-15  0.3742002E-15  0.3742002E-15  0.3367003E-02
    1      -13.896418   1.000000
    2      -12.631905   1.000000
    3      -12.400204   1.000000
    4      -11.885842   1.000000
    5      -11.621900   1.000000
    6      -11.091356   1.000000
    7      -11.066079   1.000000
    8      -11.050727   1.000000
    9      -10.948844   1.000000
   10      -10.629459   1.000000
   11      -10.586054   1.000000
   12      -10.295439   1.000000
   13      -10.208660   1.000000
   14      -10.168568   1.000000
   15       -9.710779   1.000000
   16       -9.700668   1.000000
   17       -9.122571   1.000000
   18       -9.082040   1.000000
   19       -8.879053   1.000000
   20       -8.580008   1.000000
   21       -8.419776   1.000000
   22       -8.391830   1.000000
   23       -8.344192   1.000000
   24       -8.039801   1.000000
   25       -7.935300   1.000000
   26       -7.907759   1.000000
   27       -7.515095   1.000000
   28       -7.214495   1.000000
   29       -6.890705   1.000000
   30       -6.489643   1.000000
   31       -6.417887   1.000000
   32       -6.397127   1.000000
   33       -6.060565   1.000000
   34       -5.957629   1.000000
   35       -5.897796   1.000000
   36       -5.701647   1.000000
   37       -5.577517   1.000000
   38       -5.402692   1.000000
   39       -5.376105   1.000000
   40       -5.315190   1.000000
   41       -5.091352   1.000000
   42       -5.070585   1.000000
   43       -5.005772   1.000000
   44       -4.950501   1.000000
   45       -4.813764   1.000000
   46       -4.757257   1.000000
   47       -4.665698   1.000000
   48       -4.603276   1.000000
   49       -4.553137   1.000000
   50       -4.499868   1.000000
   51       -4.454112   1.000000
   52       -4.418153   1.000000
   53       -4.370268   1.000000
   54       -4.257674   1.000000
   55       -4.188568   1.000000
   56       -4.069000   1.000000
   57       -4.032570   1.000000
   58       -3.960609   1.000000
   59       -3.918962   1.000000
   60       -3.844460   1.000000
   61       -3.788583   1.000000
   62       -3.672444   1.000000
   63       -3.453338   1.000000
   64       -3.397253   1.000000
   65       -3.358785   1.000000
   66       -3.324856   1.000000
   67       -3.290283   1.000000
   68       -3.261630   1.000000
   69       -3.153830   1.000000
   70       -3.129059   1.000000
   71       -3.054251   1.000000
   72       -3.015758   1.000000
   73       -2.916228   1.000000
   74       -2.630358   1.000000
   75       -2.425070   1.000000
   76       -2.305251   1.000000
   77       -2.176810   1.000000
   78       -2.079427   1.000000
   79       -1.987310   1.000000
   80       -1.868594   1.000000
   81       -1.663705   1.000000
   82       -1.618540   1.000000
   83       -1.601108   1.000000
   84       -1.319723   1.000000
   85       -1.180878   1.000000
   86       -1.022894   1.000000
   87       -0.936521   1.000000
   88       -0.865405   1.000000
   89       -0.837702   1.000000
   90       -0.293825   1.000000
   91       -0.099709   1.000279
   92        0.028426   1.026995
   93        0.104305   0.977868
   94        0.152045   0.725804
   95        0.208463   0.268778
   96        0.243492   0.064468
   97        0.282840  -0.027926
   98        0.527976  -0.000005
   99        0.634169  -0.000000
  100        0.688801  -0.000000
  101        0.707039  -0.000000
  102        0.817511  -0.000000
  103        0.821615  -0.000000
  104        0.908778  -0.000000
  105        1.010094  -0.000000
  106        1.044275  -0.000000
  107        1.283163  -0.000000
  108        1.364011  -0.000000
  109        1.420193  -0.000000
  110        1.439776  -0.000000
  111        1.524892  -0.000000
  112        1.557514  -0.000000
  113        1.589827  -0.000000
  114        1.629749  -0.000000
  115        1.758050  -0.000000
  116        1.777262  -0.000000
  117        1.853202  -0.000000
  118        1.954447  -0.000000
  119        2.001898  -0.000000
  120        2.021553  -0.000000
  121        2.035497  -0.000000
  122        2.100143  -0.000000
  123        2.211799  -0.000000
  124        2.254343  -0.000000
  125        2.436451  -0.000000
  126        2.531886  -0.000000
  127        2.719083  -0.000000
  128        3.909428   0.000000

  0.1111111E+00  0.3729374E-15  0.3860503E-15  0.6734007E-02
    1      -13.869463   1.000000
    2      -12.615609   1.000000
    3      -12.507678   1.000000
    4      -11.832878   1.000000
    5      -11.608401   1.000000
    6      -11.101243   1.000000
    7      -11.057358   1.000000
    8      -11.044055   1.000000
    9      -10.969075   1.000000
   10      -10.628531   1.000000
   11      -10.581920   1.000000
   12      -10.309960   1.000000
   13      -10.196099   1.000000
   14      -10.153943   1.000000
   15       -9.709021   1.000000
   16       -9.689082   1.000000
   17       -9.132412   1.000000
   18       -9.062797   1.000000
   19       -8.882994   1.000000
   20       -8.591269   1.000000
   21       -8.429039   1.000000
   22       -8.392161   1.000000
   23       -8.371285   1.000000
   24       -8.037902   1.000000
   25       -7.970336   1.000000
   26       -7.916511   1.000000
   27       -7.546101   1.000000
   28       -7.287036   1.000000
   29       -6.853827   1.000000
   30       -6.461131   1.000000
   31       -6.383271   1.000000
   32       -6.346632   1.000000
   33       -6.032355   1.000000
   34       -5.963846   1.000000
   35       -5.883922   1.000000
   36       -5.672384   1.000000
   37       -5.625931   1.000000
   38       -5.448263   1.000000
   39       -5.338600   1.000000
   40       -5.239574   1.000000
   41       -5.179851   1.000000
   42       -5.032883   1.000000
   43       -4.985918   1.000000
   44       -4.967429   1.000000
   45       -4.773296   1.000000
   46       -4.694834   1.000000
   47       -4.673820   1.000000
   48       -4.623259   1.000000
   49       -4.554799   1.000000
   50       -4.516421   1.000000
   51       -4.416478   1.000000
   52       -4.398652   1.000000
   53       -4.342427   1.000000
   54       -4.253135   1.000000
   55       -4.175583   1.000000
   56       -4.083915   1.000000
   57       -4.048146   1.000000
   58       -3.982256   1.000000
   59       -3.927951   1.000000
   60       -3.820962   1.000000
   61       -3.800062   1.000000
   62       -3.653524   1.000000
   63       -3.499400   1.000000
   64       -3.388472   1.000000
   65       -3.337266   1.000000
   66       -3.329998   1.000000
   67       -3.283282   1.000000
   68       -3.256065   1.000000
   69       -3.175514   1.000000
   70       -3.119928   1.000000
   71       -3.091095   1.000000
   72       -2.984994   1.000000
   73       -2.929962   1.000000
   74       -2.682401   1.000000
   75       -2.424136   1.000000
   76       -2.308659   1.000000
   77       -2.149638   1.000000
   78       -2.133783   1.000000
   79       -2.018434   1.000000
   80       -1.893230   1.000000
   81       -1.643969   1.000000
   82       -1.617554   1.000000
   83       -1.549441   1.000000
   84       -1.330537   1.000000
   85       -1.195518   1.000000
   86       -0.998486   1.000000
   87       -0.927059   1.000000
   88       -0.858848   1.000000
   89       -0.747526   1.000000
   90       -0.356753   1.000000
   91       -0.162948   1.000007
   92        0.037014   1.030675
   93        0.051491   1.034960
   94        0.139144   0.815117
   95        0.208150   0.271089
   96        0.241680   0.072107
   97        0.347315  -0.019682
   98        0.513010  -0.000013
   99        0.647028  -0.000000
  100        0.673123  -0.000000
  101        0.705385  -0.000000
  102        0.813786  -0.000000
  103        0.866083  -0.000000
  104        0.920732  -0.000000
  105        1.012709  -0.000000
  106        1.069462  -0.000000
  107        1.348100  -0.000000
  108        1.367555  -0.000000
  109        1.401273  -0.000000
  110        1.473005  -0.000000
  111        1.519873  -0.000000
  112        1.570319  -0.000000
  113        1.614936  -0.000000
  114        1.654095  -0.000000
  115        1.751500  -0.000000
  116        1.768001  -0.000000
  117        1.833683  -0.000000
  118        1.951636  -0.000000
  119        2.000441  -0.000000
  120        2.022778  -0.000000
  121        2.037614  -0.000000
  122        2.109429  -0.000000
  123        2.204452  -0.000000
  124        2.316813  -0.000000
  125        2.362358  -0.000000
  126        2.536107  -0.000000
  127        2.630410  -0.000000
  128        3.864401   0.000000

  0.2222222E+00  0.3922785E-15  0.3630220E-15  0.6734007E-02
    1      -13.789396   1.000000
    2      -12.761945   1.000000
    3      -12.526471   1.000000
    4      -11.800858   1.000000
    5      -11.569973   1.000000
    6      -11.139214   1.000000
    7      -11.042583   1.000000
    8      -11.028744   1.000000
    9      -10.955752   1.000000
   10      -10.622879   1.000000
   11      -10.569250   1.000000
   12      -10.372449   1.000000
   13      -10.171999   1.000000
   14      -10.118433   1.000000
   15       -9.704235   1.000000
   16       -9.647579   1.000000
   17       -9.160266   1.000000
   18       -9.015219   1.000000
   19       -8.873796   1.000000
   20       -8.634674   1.000000
   21       -8.520354   1.000000
   22       -8.392677   1.000000
   23       -8.382206   1.000000
   24       -8.091111   1.000000
   25       -8.049490   1.000000
   26       -7.850236   1.000000
   27       -7.677404   1.000000
   28       -7.340125   1.000000
   29       -6.814111   1.000000
   30       -6.411048   1.000000
   31       -6.334044   1.000000
   32       -6.226094   1.000000
   33       -6.068249   1.000000
   34       -5.963470   1.000000
   35       -5.816023   1.000000
   36       -5.715420   1.000000
   37       -5.582444   1.000000
   38       -5.439417   1.000000
   39       -5.342009   1.000000
   40       -5.222337   1.000000
   41       -5.107353   1.000000
   42       -4.993755   1.000000
   43       -4.906319   1.000000
   44       -4.870745   1.000000
   45       -4.833349   1.000000
   46       -4.772842   1.000000
   47       -4.691153   1.000000
   48       -4.548399   1.000000
   49       -4.519638   1.000000
   50       -4.490319   1.000000
   51       -4.397020   1.000000
   52       -4.351809   1.000000
   53       -4.290907   1.000000
   54       -4.246720   1.000000
   55       -4.178455   1.000000
   56       -4.086869   1.000000
   57       -4.024489   1.000000
   58       -4.006614   1.000000
   59       -3.944043   1.000000
   60       -3.826400   1.000000
   61       -3.780971   1.000000
   62       -3.621748   1.000000
   63       -3.559284   1.000000
   64       -3.443560   1.000000
   65       -3.392279   1.000000
   66       -3.324678   1.000000
   67       -3.300502   1.000000
   68       -3.235469   1.000000
   69       -3.217970   1.000000
   70       -3.107993   1.000000
   71       -3.072994   1.000000
   72       -2.955610   1.000000
   73       -2.889535   1.000000
   74       -2.780264   1.000000
   75       -2.427346   1.000000
   76       -2.325674   1.000000
   77       -2.265950   1.000000
   78       -2.121513   1.000000
   79       -2.107216   1.000000
   80       -1.898465   1.000000
   81       -1.735108   1.000000
   82       -1.616307   1.000000
   83       -1.372245   1.000000
   84       -1.312339   1.000000
   85       -1.235423   1.000000
   86       -0.956645   1.000000
   87       -0.885174   1.000000
   88       -0.815001   1.000000
   89       -0.510404   1.000000
   90       -0.481146   1.000000
   91       -0.310734   1.000000
   92       -0.137763   1.000034
   93        0.013980   1.020363
   94        0.141413   0.800422
   95        0.222456   0.173405
   96        0.318273  -0.032346
   97        0.399634  -0.004014
   98        0.510144  -0.000016
   99        0.612895  -0.000000
  100        0.647788  -0.000000
  101        0.721696  -0.000000
  102        0.847224  -0.000000
  103        0.888422  -0.000000
  104        0.959961  -0.000000
  105        1.051790  -0.000000
  106        1.222058  -0.000000
  107        1.318745  -0.000000
  108        1.418814  -0.000000
  109        1.477004  -0.000000
  110        1.513697  -0.000000
  111        1.536087  -0.000000
  112        1.584000  -0.000000
  113        1.654516  -0.000000
  114        1.687267  -0.000000
  115        1.716967  -0.000000
  116        1.784531  -0.000000
  117        1.816273  -0.000000
  118        1.947547  -0.000000
  119        1.991669  -0.000000
  120        2.010906  -0.000000
  121        2.030216  -0.000000
  122        2.077812  -0.000000
  123        2.192082  -0.000000
  124        2.305720  -0.000000
  125        2.331464  -0.000000
  126        2.529829  -0.000000
  127        3.848660   0.000000
  128        4.122820   0.000000

  0.3333333E+00  0.3713828E-15  0.3468587E-15  0.6734007E-02
    1      -13.658724   1.000000
    2      -13.017130   1.000000
    3      -12.420857   1.000000
    4      -11.879953   1.000000
    5      -11.520081   1.000000
    6      -11.163454   1.000000
    7      -11.029469   1.000000
    8      -11.015765   1.000000
    9      -10.881220   1.000000
   10      -10.612600   1.000000
   11      -10.551654   1.000000
   12      -10.480236   1.000000
   13      -10.158625   1.000000
   14      -10.082864   1.000000
   15       -9.696021   1.000000
   16       -9.565289   1.000000
   17       -9.179489   1.000000
   18       -9.069846   1.000000
   19       -8.753977   1.000000
   20       -8.673733   1.000000
   21       -8.657243   1.000000
   22       -8.391014   1.000000
   23       -8.387776   1.000000
   24       -8.179773   1.000000
   25       -8.128661   1.000000
   26       -7.930550   1.000000
   27       -7.656840   1.000000
   28       -7.269712   1.000000
   29       -6.834639   1.000000
   30       -6.385832   1.000000
   31       -6.318489   1.000000
   32       -6.261440   1.000000
   33       -6.152854   1.000000
   34       -5.928219   1.000000
   35       -5.722449   1.000000
   36       -5.683474   1.000000
   37       -5.476908   1.000000
   38       -5.355642   1.000000
   39       -5.284258   1.000000
   40       -5.162822   1.000000
   41       -5.073921   1.000000
   42       -5.022643   1.000000
   43       -4.928614   1.000000
   44       -4.851322   1.000000
   45       -4.794091   1.000000
   46       -4.759216   1.000000
   47       -4.664501   1.000000
   48       -4.530211   1.000000
   49       -4.486611   1.000000
   50       -4.428641   1.000000
   51       -4.376945   1.000000
   52       -4.363524   1.000000
   53       -4.260597   1.000000
   54       -4.206421   1.000000
   55       -4.134504   1.000000
   56       -4.101347   1.000000
   57       -4.047850   1.000000
   58       -3.949320   1.000000
   59       -3.927956   1.000000
   60       -3.829210   1.000000
   61       -3.767732   1.000000
   62       -3.651939   1.000000
   63       -3.592917   1.000000
   64       -3.576449   1.000000
   65       -3.452618   1.000000
   66       -3.356618   1.000000
   67       -3.304039   1.000000
   68       -3.268801   1.000000
   69       -3.190631   1.000000
   70       -3.101290   1.000000
   71       -3.077084   1.000000
   72       -2.900865   1.000000
   73       -2.811148   1.000000
   74       -2.761613   1.000000
   75       -2.485386   1.000000
   76       -2.404674   1.000000
   77       -2.354845   1.000000
   78       -2.222252   1.000000
   79       -2.141725   1.000000
   80       -1.887300   1.000000
   81       -1.812603   1.000000
   82       -1.619748   1.000000
   83       -1.429488   1.000000
   84       -1.266748   1.000000
   85       -1.073307   1.000000
   86       -0.922254   1.000000
   87       -0.774823   1.000000
   88       -0.685700   1.000000
   89       -0.628275   1.000000
   90       -0.470686   1.000000
   91       -0.334070   1.000000
   92       -0.181683   1.000002
   93       -0.139091   1.000031
   94        0.111416   0.954427
   95        0.234568   0.105291
   96        0.325089  -0.029728
   97        0.433239  -0.000996
   98        0.487744  -0.000060
   99        0.551469  -0.000001
  100        0.708966  -0.000000
  101        0.792924  -0.000000
  102        0.894195  -0.000000
  103        0.971482  -0.000000
  104        0.998466  -0.000000
  105        1.147363  -0.000000
  106        1.170122  -0.000000
  107        1.419794  -0.000000
  108        1.497899  -0.000000
  109        1.526012  -0.000000
  110        1.562576  -0.000000
  111        1.573474  -0.000000
  112        1.621003  -0.000000
  113        1.659516  -0.000000
  114        1.680415  -0.000000
  115        1.696710  -0.000000
  116        1.787208  -0.000000
  117        1.863103  -0.000000
  118        1.922618  -0.000000
  119        1.934142  -0.000000
  120        1.973004  -0.000000
  121        2.047153  -0.000000
  122        2.077435  -0.000000
  123        2.092815  -0.000000
  124        2.139233  -0.000000
  125        2.226585  -0.000000
  126        2.328375  -0.000000
  127        2.523039  -0.000000
  128        2.985545   0.000000

  0.4444444E+00  0.3870091E-15  0.3932070E-15  0.6734007E-02
    1      -13.482651   1.000000
    2      -13.261717   1.000000
    3      -12.301222   1.000000
    4      -12.007804   1.000000
    5      -11.483172   1.000000
    6      -11.169150   1.000000
    7      -11.021357   1.000000
    8      -11.007744   1.000000
    9      -10.783483   1.000000
   10      -10.625008   1.000000
   11      -10.582495   1.000000
   12      -10.532375   1.000000
   13      -10.157804   1.000000
   14      -10.064651   1.000000
   15       -9.686632   1.000000
   16       -9.458399   1.000000
   17       -9.190248   1.000000
   18       -9.178473   1.000000
   19       -8.759213   1.000000
   20       -8.681683   1.000000
   21       -8.587176   1.000000
   22       -8.404026   1.000000
   23       -8.384891   1.000000
   24       -8.239487   1.000000
   25       -8.178164   1.000000
   26       -8.141061   1.000000
   27       -7.486557   1.000000
   28       -7.164385   1.000000
   29       -6.917137   1.000000
   30       -6.468007   1.000000
   31       -6.350959   1.000000
   32       -6.278839   1.000000
   33       -6.232754   1.000000
   34       -5.883823   1.000000
   35       -5.584740   1.000000
   36       -5.529614   1.000000
   37       -5.412033   1.000000
   38       -5.318419   1.000000
   39       -5.267675   1.000000
   40       -5.204256   1.000000
   41       -5.129719   1.000000
   42       -5.025573   1.000000
   43       -4.961605   1.000000
   44       -4.826884   1.000000
   45       -4.719103   1.000000
   46       -4.676730   1.000000
   47       -4.616304   1.000000
   48       -4.542631   1.000000
   49       -4.525644   1.000000
   50       -4.419621   1.000000
   51       -4.359765   1.000000
   52       -4.311419   1.000000
   53       -4.236066   1.000000
   54       -4.211968   1.000000
   55       -4.131919   1.000000
   56       -4.052289   1.000000
   57       -4.017153   1.000000
   58       -3.975107   1.000000
   59       -3.889285   1.000000
   60       -3.799730   1.000000
   61       -3.778048   1.000000
   62       -3.734389   1.000000
   63       -3.692340   1.000000
   64       -3.564496   1.000000
   65       -3.480743   1.000000
   66       -3.409594   1.000000
   67       -3.340043   1.000000
   68       -3.267319   1.000000
   69       -3.166398   1.000000
   70       -3.101579   1.000000
   71       -3.086732   1.000000
   72       -2.820282   1.000000
   73       -2.760292   1.000000
   74       -2.640782   1.000000
   75       -2.579306   1.000000
   76       -2.507107   1.000000
   77       -2.430350   1.000000
   78       -2.292118   1.000000
   79       -2.112867   1.000000
   80       -2.011958   1.000000
   81       -1.792541   1.000000
   82       -1.614784   1.000000
   83       -1.458248   1.000000
   84       -1.263189   1.000000
   85       -0.918134   1.000000
   86       -0.851493   1.000000
   87       -0.771217   1.000000
   88       -0.725166   1.000000
   89       -0.556213   1.000000
   90       -0.478999   1.000000
   91       -0.395117   1.000000
   92       -0.300180   1.000000
   93       -0.061815   1.001664
   94        0.095318   1.000833
   95        0.171697   0.569061
   96        0.319018  -0.032085
   97        0.401988  -0.003673
   98        0.497045  -0.000035
   99        0.691371  -0.000000
  100        0.726980  -0.000000
  101        0.754476  -0.000000
  102        0.895222  -0.000000
  103        0.932879  -0.000000
  104        0.998064  -0.000000
  105        1.314838  -0.000000
  106        1.322174  -0.000000
  107        1.442541  -0.000000
  108        1.544689  -0.000000
  109        1.564937  -0.000000
  110        1.584012  -0.000000
  111        1.625557  -0.000000
  112        1.643453  -0.000000
  113        1.662462  -0.000000
  114        1.679391  -0.000000
  115        1.691928  -0.000000
  116        1.725472  -0.000000
  117        1.840089  -0.000000
  118        1.874204  -0.000000
  119        1.880587  -0.000000
  120        1.915208  -0.000000
  121        1.945919  -0.000000
  122        2.017098  -0.000000
  123        2.106483  -0.000000
  124        2.270074  -0.000000
  125        2.305373  -0.000000
  126        2.373466  -0.000000
  127        3.872366   0.000000
  128        3.968813   0.000000

  0.3742002E-15  0.9090909E-01  0.3596334E-15  0.6734007E-02
    1      -13.863159   1.000000
    2      -12.602918   1.000000
    3      -12.404393   1.000000
    4      -11.855201   1.000000
    5      -11.601083   1.000000
    6      -11.257395   1.000000
    7      -11.206753   1.000000
    8      -11.052556   1.000000
    9      -10.947555   1.000000
   10      -10.654482   1.000000
   11      -10.573026   1.000000
   12      -10.279224   1.000000
   13      -10.182879   1.000000
   14      -10.075678   1.000000
   15       -9.753309   1.000000
   16       -9.653730   1.000000
   17       -9.127228   1.000000
   18       -9.054631   1.000000
   19       -8.895196   1.000000
   20       -8.675947   1.000000
   21       -8.490004   1.000000
   22       -8.419475   1.000000
   23       -8.120230   1.000000
   24       -7.931605   1.000000
   25       -7.780191   1.000000
   26       -7.754001   1.000000
   27       -7.506479   1.000000
   28       -7.252267   1.000000
   29       -6.860832   1.000000
   30       -6.520375   1.000000
   31       -6.413001   1.000000
   32       -6.380514   1.000000
   33       -6.052353   1.000000
   34       -5.979986   1.000000
   35       -5.877194   1.000000
   36       -5.682104   1.000000
   37       -5.593774   1.000000
   38       -5.461431   1.000000
   39       -5.378042   1.000000
   40       -5.258518   1.000000
   41       -5.160415   1.000000
   42       -5.101910   1.000000
   43       -5.023905   1.000000
   44       -4.981139   1.000000
   45       -4.857759   1.000000
   46       -4.766191   1.000000
   47       -4.701010   1.000000
   48       -4.652397   1.000000
   49       -4.626154   1.000000
   50       -4.544357   1.000000
   51       -4.461002   1.000000
   52       -4.416427   1.000000
   53       -4.385017   1.000000
   54       -4.250808   1.000000
   55       -4.201355   1.000000
   56       -4.114067   1.000000
   57       -4.040428   1.000000
   58       -3.979459   1.000000
   59       -3.902606   1.000000
   60       -3.858170   1.000000
   61       -3.770223   1.000000
   62       -3.693590   1.000000
   63       -3.478375   1.000000
   64       -3.413568   1.000000
   65       -3.356737   1.000000
   66       -3.324233   1.000000
   67       -3.258555   1.000000
   68       -3.218285   1.000000
   69       -3.147747   1.000000
   70       -3.136474   1.000000
   71       -3.015445   1.000000
   72       -2.977077   1.000000
   73       -2.912394   1.000000
   74       -2.811727   1.000000
   75       -2.367878   1.000000
   76       -2.282275   1.000000
   77       -2.160633   1.000000
   78       -2.076112   1.000000
   79       -1.973972   1.000000
   80       -1.882308   1.000000
   81       -1.722236   1.000000
   82       -1.633143   1.000000
   83       -1.479486   1.000000
   84       -1.315343   1.000000
   85       -1.198674   1.000000
   86       -1.034893   1.000000
   87       -0.945794   1.000000
   88       -0.917442   1.000000
   89       -0.854696   1.000000
   90       -0.428347   1.000000
   91       -0.192536   1.000001
   92       -0.065286   1.001433
   93        0.028187   1.026887
   94        0.107974   0.966377
   95        0.162087   0.648032
   96        0.246656   0.051922
   97        0.276160  -0.020814
   98        0.441176  -0.000689
   99        0.539260  -0.000002
  100        0.656950  -0.000000
  101        0.806272  -0.000000
  102        0.843742  -0.000000
  103        0.905631  -0.000000
  104        1.050949  -0.000000
  105        1.073459  -0.000000
  106        1.108579  -0.000000
  107        1.285849  -0.000000
  108        1.321606  -0.000000
  109        1.442330  -0.000000
  110        1.471519  -0.000000
  111        1.518188  -0.000000
  112        1.540781  -0.000000
  113        1.628105  -0.000000
  114        1.638314  -0.000000
  115        1.743185  -0.000000
  116        1.783178  -0.000000
  117        1.849132  -0.000000
  118        1.889918  -0.000000
  119        1.969848  -0.000000
  120        2.040107  -0.000000
  121        2.066987  -0.000000
  122        2.148894  -0.000000
  123        2.177211  -0.000000
  124        2.330669  -0.000000
  125        2.438277  -0.000000
  126        2.527132  -0.000000
  127        3.540766   0.000000
  128        4.085752   0.000000

  0.1111111E+00  0.9090909E-01  0.4822234E-15  0.6734007E-02
    1      -13.814462   1.000000
    2      -12.611558   1.000000
    3      -12.532416   1.000000
    4      -11.791519   1.000000
    5      -11.576525   1.000000
    6      -11.302675   1.000000
    7      -11.154490   1.000000
    8      -11.067739   1.000000
    9      -10.963651   1.000000
   10      -10.648800   1.000000
   11      -10.521232   1.000000
   12      -10.307274   1.000000
   13      -10.190919   1.000000
   14      -10.086526   1.000000
   15       -9.745174   1.000000
   16       -9.623597   1.000000
   17       -9.139263   1.000000
   18       -9.006412   1.000000
   19       -8.891456   1.000000
   20       -8.715281   1.000000
   21       -8.526698   1.000000
   22       -8.447599   1.000000
   23       -8.145527   1.000000
   24       -7.920291   1.000000
   25       -7.807642   1.000000
   26       -7.773268   1.000000
   27       -7.581234   1.000000
   28       -7.317338   1.000000
   29       -6.818657   1.000000
   30       -6.545488   1.000000
   31       -6.318807   1.000000
   32       -6.283112   1.000000
   33       -6.031727   1.000000
   34       -5.988118   1.000000
   35       -5.864909   1.000000
   36       -5.671908   1.000000
   37       -5.634665   1.000000
   38       -5.467994   1.000000
   39       -5.321999   1.000000
   40       -5.238852   1.000000
   41       -5.172169   1.000000
   42       -5.100608   1.000000
   43       -5.009147   1.000000
   44       -4.937968   1.000000
   45       -4.862758   1.000000
   46       -4.737816   1.000000
   47       -4.706107   1.000000
   48       -4.612717   1.000000
   49       -4.556026   1.000000
   50       -4.532894   1.000000
   51       -4.423060   1.000000
   52       -4.386438   1.000000
   53       -4.359880   1.000000
   54       -4.282349   1.000000
   55       -4.179814   1.000000
   56       -4.126432   1.000000
   57       -4.080203   1.000000
   58       -4.004376   1.000000
   59       -3.885266   1.000000
   60       -3.839976   1.000000
   61       -3.784449   1.000000
   62       -3.656500   1.000000
   63       -3.507966   1.000000
   64       -3.447370   1.000000
   65       -3.380757   1.000000
   66       -3.363686   1.000000
   67       -3.238229   1.000000
   68       -3.220610   1.000000
   69       -3.134725   1.000000
   70       -3.099806   1.000000
   71       -3.069989   1.000000
   72       -2.963546   1.000000
   73       -2.932785   1.000000
   74       -2.835408   1.000000
   75       -2.400793   1.000000
   76       -2.305609   1.000000
   77       -2.169280   1.000000
   78       -2.137802   1.000000
   79       -1.969213   1.000000
   80       -1.920490   1.000000
   81       -1.758150   1.000000
   82       -1.632390   1.000000
   83       -1.394855   1.000000
   84       -1.327363   1.000000
   85       -1.266241   1.000000
   86       -1.018785   1.000000
   87       -0.891355   1.000000
   88       -0.832192   1.000000
   89       -0.728168   1.000000
   90       -0.509648   1.000000
   91       -0.200337   1.000001
   92       -0.111297   1.000152
   93        0.006415   1.017061
   94        0.072585   1.031140
   95        0.196571   0.360969
   96        0.279195  -0.024393
   97        0.310384  -0.034571
   98        0.403066  -0.003525
   99        0.493422  -0.000043
  100        0.695413  -0.000000
  101        0.806855  -0.000000
  102        0.852266  -0.000000
  103        0.926269  -0.000000
  104        1.046180  -0.000000
  105        1.105632  -0.000000
  106        1.114336  -0.000000
  107        1.344176  -0.000000
  108        1.379493  -0.000000
  109        1.407401  -0.000000
  110        1.463236  -0.000000
  111        1.543148  -0.000000
  112        1.576302  -0.000000
  113        1.659103  -0.000000
  114        1.677775  -0.000000
  115        1.742243  -0.000000
  116        1.775005  -0.000000
  117        1.807924  -0.000000
  118        1.894223  -0.000000
  119        1.962021  -0.000000
  120        2.015257  -0.000000
  121        2.068198  -0.000000
  122        2.123278  -0.000000