   73   73   85    1
  0.2139262E+02  0.1053953E-08  0.6141200E-09  0.2412750E-08  0.5000000E-15
   1.0000000000000000E-004
  CAR 
 Name                                    
    283     23    184

  0.3742002E-15  0.3742002E-15  0.1262379E-14  0.2222222E-01
    1      -14.040680   1.000000
    2      -12.922877   1.000000
    3      -12.844557   1.000000
    4      -12.807179   1.000000
    5      -11.871930   1.000000
    6      -11.776114   1.000000
    7      -11.695321   1.000000
    8      -11.652174   1.000000
    9      -11.486548   1.000000
   10      -11.329492   1.000000
   11      -11.261756   1.000000
   12      -11.130545   1.000000
   13      -11.114020   1.000000
   14      -10.792514   1.000000
   15      -10.692733   1.000000
   16      -10.401969   1.000000
   17      -10.237511   1.000000
   18      -10.217526   1.000000
   19      -10.042458   1.000000
   20       -9.831958   1.000000
   21       -9.728962   1.000000
   22       -9.646363   1.000000
   23       -9.515820   1.000000
   24       -9.409030   1.000000
   25       -9.046662   1.000000
   26       -8.954769   1.000000
   27       -8.746758   1.000000
   28       -8.571518   1.000000
   29       -8.440628   1.000000
   30       -8.360382   1.000000
   31       -8.264554   1.000000
   32       -7.922129   1.000000
   33       -7.907360   1.000000
   34       -7.542069   1.000000
   35       -7.320913   1.000000
   36       -7.293842   1.000000
   37       -7.173068   1.000000
   38       -7.090066   1.000000
   39       -7.014334   1.000000
   40       -6.863481   1.000000
   41       -6.833710   1.000000
   42       -6.717151   1.000000
   43       -6.698440   1.000000
   44       -6.605759   1.000000
   45       -6.536952   1.000000
   46       -6.534903   1.000000
   47       -6.484223   1.000000
   48       -6.252089   1.000000
   49       -6.217511   1.000000
   50       -6.183329   1.000000
   51       -6.069533   1.000000
   52       -5.915625   1.000000
   53       -5.822969   1.000000
   54       -5.817983   1.000000
   55       -5.706442   1.000000
   56       -5.682700   1.000000
   57       -5.626201   1.000000
   58       -5.466442   1.000000
   59       -5.412987   1.000000
   60       -5.406125   1.000000
   61       -5.306810   1.000000
   62       -5.071839   1.000000
   63       -4.953414   1.000000
   64       -4.847326   1.000000
   65       -4.816503   1.000000
   66       -4.745761   1.000000
   67       -4.741097   1.000000
   68       -4.684887   1.000000
   69       -4.594975   1.000000
   70       -4.487527   1.000000
   71       -4.458441   1.000000
   72       -4.331637   1.000000
   73       -4.307029   1.000000
   74       -4.260934   1.000000
   75       -4.249987   1.000000
   76       -4.220801   1.000000
   77       -4.153030   1.000000
   78       -4.067230   1.000000
   79       -4.038626   1.000000
   80       -4.029725   1.000000
   81       -3.974875   1.000000
   82       -3.947671   1.000000
   83       -3.892401   1.000000
   84       -3.891032   1.000000
   85       -3.784481   1.000000
   86       -3.776733   1.000000
   87       -3.730525   1.000000
   88       -3.642927   1.000000
   89       -3.632059   1.000000
   90       -3.610103   1.000000
   91       -3.437183   1.000000
   92       -3.433832   1.000000
   93       -3.310909   1.000000
   94       -3.201406   1.000000
   95       -3.075202   1.000000
   96       -2.974421   1.000000
   97       -2.916914   1.000000
   98       -2.915420   1.000000
   99       -2.832807   1.000000
  100       -2.762362   1.000000
  101       -2.659864   1.000000
  102       -2.619598   1.000000
  103       -2.471848   1.000000
  104       -2.461892   1.000000
  105       -2.446725   1.000000
  106       -2.397156   1.000000
  107       -2.276566   1.000000
  108       -2.158335   1.000000
  109       -2.149526   1.000000
  110       -2.065861   1.000000
  111       -2.046362   1.000000
  112       -1.953819   1.000000
  113       -1.925650   1.000000
  114       -1.889149   1.000000
  115       -1.886947   1.000000
  116       -1.877570   1.000000
  117       -1.802587   1.000000
  118       -1.747837   1.000000
  119       -1.747345   1.000000
  120       -1.633548   1.000000
  121       -1.234819   1.000000
  122       -1.111628   1.000000
  123       -1.108309   1.000000
  124       -1.041225   1.000000
  125       -0.921518   1.000000
  126       -0.799182   1.000000
  127       -0.725615   1.000000
  128       -0.624921   1.000000
  129       -0.492594   1.000000
  130       -0.465934   1.000000
  131       -0.295684   1.000000
  132       -0.280078   1.000000
  133       -0.215506   1.000000
  134       -0.103140   1.000000
  135        0.108141   1.001145
  136        0.124689   1.002325
  137        0.204956   1.026098
  138        0.220251   1.032431
  139        0.276258   0.995300
  140        0.279231   0.987863
  141        0.325362   0.763317
  142        0.397761   0.193713
  143        0.398944   0.186089
  144        0.489711  -0.034391
  145        0.510772  -0.026577
  146        0.516485  -0.023947
  147        0.566564  -0.006084
  148        0.573760  -0.004716
  149        0.709033  -0.000004
  150        0.733414  -0.000001
  151        0.945840  -0.000000
  152        0.960435  -0.000000
  153        1.076778  -0.000000
  154        1.084348  -0.000000
  155        1.163623  -0.000000
  156        1.166962  -0.000000
  157        1.232044  -0.000000
  158        1.254536  -0.000000
  159        1.279823  -0.000000
  160        1.299929  -0.000000
  161        1.348137  -0.000000
  162        1.348891  -0.000000
  163        1.404021  -0.000000
  164        1.480958  -0.000000
  165        1.522807  -0.000000
  166        1.607135  -0.000000
  167        1.623025  -0.000000
  168        1.624015  -0.000000
  169        1.648677  -0.000000
  170        1.676951  -0.000000
  171        1.684965  -0.000000
  172        1.686811  -0.000000
  173        1.748364  -0.000000
  174        1.750267  -0.000000
  175        1.826341  -0.000000
  176        1.891567  -0.000000
  177        1.902459  -0.000000
  178        1.918636  -0.000000
  179        1.959496  -0.000000
  180        2.101770  -0.000000
  181        2.128078  -0.000000
  182        2.190242  -0.000000
  183        2.214586  -0.000000
  184        2.222331  -0.000000

  0.2000000E+00  0.3742002E-15  0.1262379E-14  0.4444444E-01
    1      -13.992273   1.000000
    2      -13.288080   1.000000
    3      -12.767814   1.000000
    4      -12.403042   1.000000
    5      -12.111400   1.000000
    6      -11.861179   1.000000
    7      -11.705010   1.000000
    8      -11.414474   1.000000
    9      -11.352424   1.000000
   10      -11.307024   1.000000
   11      -11.195672   1.000000
   12      -11.177064   1.000000
   13      -11.025270   1.000000
   14      -10.860745   1.000000
   15      -10.744659   1.000000
   16      -10.654421   1.000000
   17      -10.582303   1.000000
   18      -10.256635   1.000000
   19       -9.819763   1.000000
   20       -9.766484   1.000000
   21       -9.634699   1.000000
   22       -9.563995   1.000000
   23       -9.489413   1.000000
   24       -9.451264   1.000000
   25       -9.230374   1.000000
   26       -8.944004   1.000000
   27       -8.611198   1.000000
   28       -8.433788   1.000000
   29       -8.331925   1.000000
   30       -8.221538   1.000000
   31       -8.210220   1.000000
   32       -8.180987   1.000000
   33       -7.787868   1.000000
   34       -7.592444   1.000000
   35       -7.485686   1.000000
   36       -7.367446   1.000000
   37       -7.292533   1.000000
   38       -7.210293   1.000000
   39       -7.081628   1.000000
   40       -6.903718   1.000000
   41       -6.822787   1.000000
   42       -6.765234   1.000000
   43       -6.676908   1.000000
   44       -6.640941   1.000000
   45       -6.590225   1.000000
   46       -6.455819   1.000000
   47       -6.299603   1.000000
   48       -6.263557   1.000000
   49       -6.192176   1.000000
   50       -6.136006   1.000000
   51       -6.008843   1.000000
   52       -5.867475   1.000000
   53       -5.801306   1.000000
   54       -5.727274   1.000000
   55       -5.665475   1.000000
   56       -5.584710   1.000000
   57       -5.559519   1.000000
   58       -5.464449   1.000000
   59       -5.459407   1.000000
   60       -5.420699   1.000000
   61       -5.301978   1.000000
   62       -5.228601   1.000000
   63       -4.965161   1.000000
   64       -4.884271   1.000000
   65       -4.839388   1.000000
   66       -4.766876   1.000000
   67       -4.749608   1.000000
   68       -4.685227   1.000000
   69       -4.604041   1.000000
   70       -4.454305   1.000000
   71       -4.409362   1.000000
   72       -4.306384   1.000000
   73       -4.303157   1.000000
   74       -4.284371   1.000000
   75       -4.254553   1.000000
   76       -4.209499   1.000000
   77       -4.153864   1.000000
   78       -4.049177   1.000000
   79       -4.043280   1.000000
   80       -4.030838   1.000000
   81       -4.017323   1.000000
   82       -4.006378   1.000000
   83       -3.855957   1.000000
   84       -3.841989   1.000000
   85       -3.759695   1.000000
   86       -3.707266   1.000000
   87       -3.689772   1.000000
   88       -3.669100   1.000000
   89       -3.632687   1.000000
   90       -3.611968   1.000000
   91       -3.598194   1.000000
   92       -3.396643   1.000000
   93       -3.301638   1.000000
   94       -3.275449   1.000000
   95       -3.135502   1.000000
   96       -3.052170   1.000000
   97       -2.970117   1.000000
   98       -2.961372   1.000000
   99       -2.856820   1.000000
  100       -2.817282   1.000000
  101       -2.754095   1.000000
  102       -2.471285   1.000000
  103       -2.407635   1.000000
  104       -2.364167   1.000000
  105       -2.350387   1.000000
  106       -2.310488   1.000000
  107       -2.275380   1.000000
  108       -2.205909   1.000000
  109       -2.112043   1.000000
  110       -2.075642   1.000000
  111       -2.062532   1.000000
  112       -1.959877   1.000000
  113       -1.947758   1.000000
  114       -1.822996   1.000000
  115       -1.816819   1.000000
  116       -1.801615   1.000000
  117       -1.782133   1.000000
  118       -1.700330   1.000000
  119       -1.618881   1.000000
  120       -1.567331   1.000000
  121       -1.229043   1.000000
  122       -1.202507   1.000000
  123       -1.139697   1.000000
  124       -1.090481   1.000000
  125       -1.000316   1.000000
  126       -0.876124   1.000000
  127       -0.727553   1.000000
  128       -0.649480   1.000000
  129       -0.641059   1.000000
  130       -0.531198   1.000000
  131       -0.490750   1.000000
  132       -0.366312   1.000000
  133       -0.282412   1.000000
  134       -0.175504   1.000000
  135       -0.038071   1.000000
  136        0.053583   1.000071
  137        0.231168   1.035133
  138        0.264896   1.016990
  139        0.280404   0.984710
  140        0.282624   0.978406
  141        0.380082   0.321123
  142        0.419458   0.075247
  143        0.512286  -0.025885
  144        0.562182  -0.007059
  145        0.574153  -0.004649
  146        0.606864  -0.001239
  147        0.617317  -0.000770
  148        0.627929  -0.000463
  149        0.665179  -0.000064
  150        0.682189  -0.000023
  151        1.003468  -0.000000
  152        1.038518  -0.000000
  153        1.087580  -0.000000
  154        1.121302  -0.000000
  155        1.186999  -0.000000
  156        1.193090  -0.000000
  157        1.224610  -0.000000
  158        1.232051  -0.000000
  159        1.334121  -0.000000
  160        1.361536  -0.000000
  161        1.386939  -0.000000
  162        1.420245  -0.000000
  163        1.469555  -0.000000
  164        1.491431  -0.000000
  165        1.494054  -0.000000
  166        1.582729  -0.000000
  167        1.597227  -0.000000
  168        1.618548  -0.000000
  169        1.646065  -0.000000
  170        1.669700  -0.000000
  171        1.713480  -0.000000
  172        1.763208  -0.000000
  173        1.787738  -0.000000
  174        1.833202  -0.000000
  175        1.843470  -0.000000
  176        1.889166  -0.000000
  177        1.898945  -0.000000
  178        1.958400  -0.000000
  179        1.982539  -0.000000
  180        2.022085  -0.000000
  181        2.072194  -0.000000
  182        2.076925  -0.000000
  183        2.172866  -0.000000
  184        2.211418  -0.000000

  0.4000000E+00  0.3742002E-15  0.1262379E-14  0.4444444E-01
    1      -13.848252   1.000000
    2      -13.611240   1.000000
    3      -12.637375   1.000000
    4      -12.409512   1.000000
    5      -11.866634   1.000000
    6      -11.829781   1.000000
    7      -11.776671   1.000000
    8      -11.333351   1.000000
    9      -11.317562   1.000000
   10      -11.291948   1.000000
   11      -11.176447   1.000000
   12      -11.144672   1.000000
   13      -11.009651   1.000000
   14      -10.927774   1.000000
   15      -10.884835   1.000000
   16      -10.754516   1.000000
   17      -10.720191   1.000000
   18      -10.344671   1.000000
   19      -10.095629   1.000000
   20       -9.714878   1.000000
   21       -9.599305   1.000000
   22       -9.480114   1.000000
   23       -9.393304   1.000000
   24       -9.348125   1.000000
   25       -9.179454   1.000000
   26       -8.924569   1.000000
   27       -8.516097   1.000000
   28       -8.372562   1.000000
   29       -8.272759   1.000000
   30       -8.010873   1.000000
   31       -7.969503   1.000000
   32       -7.962944   1.000000
   33       -7.911326   1.000000
   34       -7.813014   1.000000
   35       -7.699675   1.000000
   36       -7.695867   1.000000
   37       -7.472934   1.000000
   38       -7.361489   1.000000
   39       -7.226497   1.000000
   40       -7.019889   1.000000
   41       -6.797097   1.000000
   42       -6.635424   1.000000
   43       -6.622543   1.000000
   44       -6.554895   1.000000
   45       -6.546490   1.000000
   46       -6.437849   1.000000
   47       -6.273952   1.000000
   48       -6.176987   1.000000
   49       -6.122874   1.000000
   50       -6.076548   1.000000
   51       -5.948070   1.000000
   52       -5.933785   1.000000
   53       -5.840162   1.000000
   54       -5.748561   1.000000
   55       -5.695500   1.000000
   56       -5.605393   1.000000
   57       -5.449422   1.000000
   58       -5.434119   1.000000
   59       -5.371548   1.000000
   60       -5.250456   1.000000
   61       -5.189561   1.000000
   62       -5.155712   1.000000
   63       -4.995055   1.000000
   64       -4.943394   1.000000
   65       -4.924072   1.000000
   66       -4.841844   1.000000
   67       -4.791385   1.000000
   68       -4.713486   1.000000
   69       -4.559721   1.000000
   70       -4.520033   1.000000
   71       -4.476699   1.000000
   72       -4.395679   1.000000
   73       -4.354824   1.000000
   74       -4.276585   1.000000
   75       -4.261772   1.000000
   76       -4.211415   1.000000
   77       -4.107161   1.000000
   78       -4.035094   1.000000
   79       -4.011157   1.000000
   80       -3.960851   1.000000
   81       -3.955521   1.000000
   82       -3.933091   1.000000
   83       -3.905133   1.000000
   84       -3.837338   1.000000
   85       -3.799531   1.000000
   86       -3.726866   1.000000
   87       -3.703577   1.000000
   88       -3.660000   1.000000
   89       -3.570430   1.000000
   90       -3.546529   1.000000
   91       -3.511711   1.000000
   92       -3.423575   1.000000
   93       -3.419858   1.000000
   94       -3.361804   1.000000
   95       -3.285861   1.000000
   96       -3.185157   1.000000
   97       -3.092266   1.000000
   98       -2.995798   1.000000
   99       -2.975908   1.000000
  100       -2.843806   1.000000
  101       -2.579601   1.000000
  102       -2.472625   1.000000
  103       -2.449360   1.000000
  104       -2.427837   1.000000
  105       -2.275221   1.000000
  106       -2.141380   1.000000
  107       -2.133943   1.000000
  108       -2.128296   1.000000
  109       -2.115335   1.000000
  110       -2.012406   1.000000
  111       -1.980932   1.000000
  112       -1.948819   1.000000
  113       -1.861409   1.000000
  114       -1.827802   1.000000
  115       -1.743509   1.000000
  116       -1.690734   1.000000
  117       -1.575746   1.000000
  118       -1.536619   1.000000
  119       -1.480186   1.000000
  120       -1.440339   1.000000
  121       -1.299187   1.000000
  122       -1.268953   1.000000
  123       -1.238788   1.000000
  124       -1.228277   1.000000
  125       -1.172070   1.000000
  126       -0.964110   1.000000
  127       -0.942142   1.000000
  128       -0.841375   1.000000
  129       -0.792743   1.000000
  130       -0.731919   1.000000
  131       -0.612853   1.000000
  132       -0.535224   1.000000
  133       -0.277813   1.000000
  134       -0.240595   1.000000
  135       -0.095183   1.000000
  136        0.155287   1.007223
  137        0.184513   1.016891
  138        0.195876   1.021908
  139        0.221858   1.032962
  140        0.287454   0.963094
  141        0.339651   0.655529
  142        0.420030   0.072759
  143        0.490107  -0.034300
  144        0.589689  -0.002563
  145        0.598253  -0.001799
  146        0.632156  -0.000375
  147        0.695279  -0.000010
  148        0.761764  -0.000000
  149        0.846426  -0.000000
  150        0.868430  -0.000000
  151        0.998388  -0.000000
  152        1.008806  -0.000000
  153        1.125370  -0.000000
  154        1.160409  -0.000000
  155        1.225862  -0.000000
  156        1.290511  -0.000000
  157        1.299130  -0.000000
  158        1.345905  -0.000000
  159        1.417120  -0.000000
  160        1.431431  -0.000000
  161        1.457099  -0.000000
  162        1.482005  -0.000000
  163        1.520536  -0.000000
  164        1.523745  -0.000000
  165        1.551077  -0.000000
  166        1.564758  -0.000000
  167        1.595084  -0.000000
  168        1.638865  -0.000000
  169        1.682684  -0.000000
  170        1.693640  -0.000000
  171        1.725455  -0.000000
  172        1.726432  -0.000000
  173        1.795160  -0.000000
  174        1.807439  -0.000000
  175        1.853550  -0.000000
  176        1.889362  -0.000000
  177        1.901681  -0.000000
  178        1.926304  -0.000000
  179        1.947949  -0.000000
  180        1.989045  -0.000000
  181        2.029766  -0.000000
  182        2.032326  -0.000000
  183        2.146532  -0.000000
  184        2.189238  -0.000000

  0.3742002E-15  0.1111111E+00  0.1262379E-14  0.4444444E-01
    1      -13.993793   1.000000
    2      -12.883069   1.000000
    3      -12.811435   1.000000
    4      -12.767807   1.000000
    5      -11.976425   1.000000
    6      -11.745006   1.000000
    7      -11.690403   1.000000
    8      -11.669780   1.000000
    9      -11.524963   1.000000
   10      -11.373221   1.000000
   11      -11.242017   1.000000
   12      -11.134035   1.000000
   13      -11.124090   1.000000
   14      -10.765299   1.000000
   15      -10.703806   1.000000
   16      -10.406001   1.000000
   17      -10.216602   1.000000
   18      -10.179018   1.000000
   19      -10.033568   1.000000
   20       -9.805259   1.000000
   21       -9.763132   1.000000
   22       -9.668032   1.000000
   23       -9.532205   1.000000
   24       -9.407823   1.000000
   25       -9.032292   1.000000
   26       -8.976753   1.000000
   27       -8.738504   1.000000
   28       -8.567953   1.000000
   29       -8.423566   1.000000
   30       -8.384265   1.000000
   31       -8.105718   1.000000
   32       -7.973062   1.000000
   33       -7.936621   1.000000
   34       -7.592731   1.000000
   35       -7.419728   1.000000
   36       -7.398644   1.000000
   37       -7.145670   1.000000
   38       -7.071591   1.000000
   39       -6.993681   1.000000
   40       -6.804143   1.000000
   41       -6.759703   1.000000
   42       -6.720202   1.000000
   43       -6.702281   1.000000
   44       -6.610697   1.000000
   45       -6.527443   1.000000
   46       -6.513530   1.000000
   47       -6.499419   1.000000
   48       -6.263735   1.000000
   49       -6.252578   1.000000
   50       -6.108482   1.000000
   51       -6.079026   1.000000
   52       -5.914404   1.000000
   53       -5.835745   1.000000
   54       -5.756335   1.000000
   55       -5.708891   1.000000
   56       -5.649092   1.000000
   57       -5.614261   1.000000
   58       -5.404914   1.000000
   59       -5.382987   1.000000
   60       -5.358062   1.000000
   61       -5.299551   1.000000
   62       -5.075848   1.000000
   63       -4.893622   1.000000
   64       -4.881344   1.000000
   65       -4.804004   1.000000
   66       -4.745676   1.000000
   67       -4.736035   1.000000
   68       -4.670894   1.000000
   69       -4.600494   1.000000
   70       -4.493015   1.000000
   71       -4.420648   1.000000
   72       -4.368921   1.000000
   73       -4.350556   1.000000
   74       -4.274478   1.000000
   75       -4.258573   1.000000
   76       -4.229237   1.000000
   77       -4.157182   1.000000
   78       -4.152746   1.000000
   79       -4.141203   1.000000
   80       -4.083373   1.000000
   81       -4.042668   1.000000
   82       -4.000403   1.000000
   83       -3.881239   1.000000
   84       -3.866246   1.000000
   85       -3.843497   1.000000
   86       -3.799729   1.000000
   87       -3.751477   1.000000
   88       -3.655320   1.000000
   89       -3.612508   1.000000
   90       -3.611127   1.000000
   91       -3.561776   1.000000
   92       -3.400676   1.000000
   93       -3.293747   1.000000
   94       -3.027531   1.000000
   95       -3.013178   1.000000
   96       -3.000765   1.000000
   97       -2.937738   1.000000
   98       -2.883831   1.000000
   99       -2.810628   1.000000
  100       -2.734867   1.000000
  101       -2.665226   1.000000
  102       -2.632416   1.000000
  103       -2.589188   1.000000
  104       -2.526498   1.000000
  105       -2.416190   1.000000
  106       -2.333777   1.000000
  107       -2.310815   1.000000
  108       -2.216038   1.000000
  109       -2.187371   1.000000
  110       -2.150867   1.000000
  111       -2.116562   1.000000
  112       -2.004730   1.000000
  113       -1.964140   1.000000
  114       -1.931311   1.000000
  115       -1.838590   1.000000
  116       -1.807308   1.000000
  117       -1.783508   1.000000
  118       -1.745131   1.000000
  119       -1.630583   1.000000
  120       -1.566193   1.000000
  121       -1.228299   1.000000
  122       -1.196648   1.000000
  123       -1.104967   1.000000
  124       -0.972923   1.000000
  125       -0.924821   1.000000
  126       -0.796934   1.000000
  127       -0.730489   1.000000
  128       -0.695503   1.000000
  129       -0.678720   1.000000
  130       -0.387224   1.000000
  131       -0.364874   1.000000
  132       -0.312886   1.000000
  133       -0.128718   1.000000
  134       -0.062362   1.000000
  135        0.018844   1.000009
  136        0.130967   1.002990
  137        0.164638   1.009732
  138        0.201455   1.024485
  139        0.228536   1.034700
  140        0.235337   1.035453
  141        0.255861   1.027555
  142        0.299081   0.916884
  143        0.467281  -0.032064
  144        0.482715  -0.035406
  145        0.499858  -0.031223
  146        0.610039  -0.001075
  147        0.619290  -0.000702
  148        0.672618  -0.000041
  149        0.729291  -0.000001
  150        0.894156  -0.000000
  151        0.987588  -0.000000
  152        1.008222  -0.000000
  153        1.020365  -0.000000
  154        1.162638  -0.000000
  155        1.170363  -0.000000
  156        1.177903  -0.000000
  157        1.196474  -0.000000
  158        1.272516  -0.000000
  159        1.331314  -0.000000
  160        1.351007  -0.000000
  161        1.353672  -0.000000
  162        1.372779  -0.000000
  163        1.398211  -0.000000
  164        1.401626  -0.000000
  165        1.505413  -0.000000
  166        1.561985  -0.000000
  167        1.613389  -0.000000
  168        1.622143  -0.000000
  169        1.635002  -0.000000
  170        1.686410  -0.000000
  171        1.707358  -0.000000
  172        1.730586  -0.000000
  173        1.746146  -0.000000
  174        1.781259  -0.000000
  175        1.823019  -0.000000
  176        1.836879  -0.000000
  177        1.891853  -0.000000
  178        1.899147  -0.000000
  179        1.918906  -0.000000
  180        1.951577  -0.000000
  181        1.991759  -0.000000
  182        2.134274  -0.000000
  183        2.252571  -0.000000
  184        2.314167  -0.000000

  0.2000000E+00  0.1111111E+00  0.1262379E-14  0.4444444E-01
    1      -13.945797   1.000000
    2      -13.247538   1.000000
    3      -12.728860   1.000000
    4      -12.371421   1.000000
    5      -12.079060   1.000000
    6      -11.962127   1.000000
    7      -11.759472   1.000000
    8      -11.436184   1.000000
    9      -11.369846   1.000000
   10      -11.308123   1.000000
   11      -11.201474   1.000000
   12      -11.169610   1.000000
   13      -11.025727   1.000000
   14      -10.837449   1.000000
   15      -10.753109   1.000000
   16      -10.638169   1.000000
   17      -10.559290   1.000000
   18      -10.261089   1.000000
   19       -9.813488   1.000000
   20       -9.752324   1.000000
   21       -9.656734   1.000000
   22       -9.550055   1.000000
   23       -9.496454   1.000000
   24       -9.451761   1.000000
   25       -9.244867   1.000000
   26       -8.948190   1.000000
   27       -8.594031   1.000000
   28       -8.435786   1.000000
   29       -8.320795   1.000000
   30       -8.241813   1.000000
   31       -8.224490   1.000000
   32       -8.044183   1.000000
   33       -7.828508   1.000000
   34       -7.674291   1.000000
   35       -7.543010   1.000000
   36       -7.430463   1.000000
   37       -7.204619   1.000000
   38       -7.188809   1.000000
   39       -7.043356   1.000000
   40       -6.889891   1.000000
   41       -6.812960   1.000000
   42       -6.741551   1.000000
   43       -6.713531   1.000000
   44       -6.680104   1.000000
   45       -6.605674   1.000000
   46       -6.579133   1.000000
   47       -6.296955   1.000000
   48       -6.236804   1.000000
   49       -6.145337   1.000000
   50       -6.053597   1.000000
   51       -5.973719   1.000000
   52       -5.868225   1.000000
   53       -5.804023   1.000000
   54       -5.714032   1.000000
   55       -5.628719   1.000000
   56       -5.590098   1.000000
   57       -5.555562   1.000000
   58       -5.450242   1.000000
   59       -5.387325   1.000000
   60       -5.371519   1.000000
   61       -5.268609   1.000000
   62       -5.214337   1.000000
   63       -4.985117   1.000000
   64       -4.859607   1.000000
   65       -4.804240   1.000000
   66       -4.778010   1.000000
   67       -4.689182   1.000000
   68       -4.660712   1.000000
   69       -4.609903   1.000000
   70       -4.468521   1.000000
   71       -4.435290   1.000000
   72       -4.336781   1.000000
   73       -4.295093   1.000000
   74       -4.282414   1.000000
   75       -4.261447   1.000000
   76       -4.228746   1.000000
   77       -4.219505   1.000000
   78       -4.163034   1.000000
   79       -4.123584   1.000000
   80       -4.079471   1.000000
   81       -4.074368   1.000000
   82       -4.008525   1.000000
   83       -3.894272   1.000000
   84       -3.826738   1.000000
   85       -3.803656   1.000000
   86       -3.790131   1.000000
   87       -3.740641   1.000000
   88       -3.686082   1.000000
   89       -3.616210   1.000000
   90       -3.582202   1.000000
   91       -3.541380   1.000000
   92       -3.350851   1.000000
   93       -3.311141   1.000000
   94       -3.155494   1.000000
   95       -3.126127   1.000000
   96       -3.072161   1.000000
   97       -2.998543   1.000000
   98       -2.932961   1.000000
   99       -2.865464   1.000000
  100       -2.842497   1.000000
  101       -2.708030   1.000000
  102       -2.491104   1.000000
  103       -2.479105   1.000000
  104       -2.413952   1.000000
  105       -2.370723   1.000000
  106       -2.340813   1.000000
  107       -2.278509   1.000000
  108       -2.198525   1.000000
  109       -2.150864   1.000000
  110       -2.128128   1.000000
  111       -2.060815   1.000000
  112       -1.992417   1.000000
  113       -1.936088   1.000000
  114       -1.916291   1.000000
  115       -1.890371   1.000000
  116       -1.801475   1.000000
  117       -1.724218   1.000000
  118       -1.659637   1.000000
  119       -1.608907   1.000000
  120       -1.494807   1.000000
  121       -1.296146   1.000000
  122       -1.172054   1.000000
  123       -1.143353   1.000000
  124       -1.034526   1.000000
  125       -1.011401   1.000000
  126       -0.893728   1.000000
  127       -0.869782   1.000000
  128       -0.772983   1.000000
  129       -0.545080   1.000000
  130       -0.520485   1.000000
  131       -0.355375   1.000000
  132       -0.286702   1.000000
  133       -0.147310   1.000000
  134       -0.125279   1.000000
  135       -0.062383   1.000000
  136       -0.025211   1.000000
  137        0.089039   1.000467
  138        0.149392   1.005914
  139        0.221667   1.032901
  140        0.313757   0.839204
  141        0.376566   0.348958
  142        0.416464   0.088808
  143        0.426089   0.048415
  144        0.489964  -0.034333
  145        0.519812  -0.022409
  146        0.579798  -0.003770
  147        0.662330  -0.000075
  148        0.765586  -0.000000
  149        0.806972  -0.000000
  150        0.837110  -0.000000
  151        0.959981  -0.000000
  152        1.029390  -0.000000
  153        1.121933  -0.000000
  154        1.169879  -0.000000
  155        1.217708  -0.000000
  156        1.251576  -0.000000
  157        1.263810  -0.000000