 running on   72 total cores
 distrk:  each k-point on   72 cores,    1 groups
 distr:  one band on    9 cores,    8 groups
 using from now: INCAR     
 vasp.5.4.4.18Apr17-6-g9f103f2a35 (build Dec  7 2020 12:43:57) complex           
 POSCAR found type information on POSCAR  Mo V  B  H 
 POSCAR found :  4 types and      73 ions
 scaLAPACK will be used
 LDA part: xc-table for Pade appr. of Perdew
 POSCAR, INCAR and KPOINTS ok, starting setup
 resort distribution
 resort distribution
 resort distribution
 resort distribution
 resort distribution
 resort distribution
 resort distribution
 resort distribution
 resort distribution
 resort distribution
 resort distribution
 resort distribution
 resort distribution
 resort distribution
 resort distribution
 resort distribution
 resort distribution
 resort distribution
 resort distribution
 resort distribution
 resort distribution
 resort distribution
 resort distribution
 resort distribution
 resort distribution
 resort distribution
 resort distribution
 resort distribution
 resort distribution
 resort distribution
 resort distribution
 resort distribution
 resort distribution
 resort distribution
 resort distribution
 resort distribution
 resort distribution
 resort distribution
 resort distribution
 resort distribution
 resort distribution
 resort distribution
 resort distribution
 resort distribution
 resort distribution
 resort distribution
 resort distribution
 resort distribution
 resort distribution
 resort distribution
 resort distribution
 resort distribution
 resort distribution
 resort distribution
 resort distribution
 resort distribution
 resort distribution
 resort distribution
 resort distribution
 resort distribution
 resort distribution
 resort distribution
 resort distribution
 resort distribution
 resort distribution
 resort distribution
 resort distribution
 resort distribution
 resort distribution
 resort distribution
 resort distribution
 resort distribution
 FFT: planning ...
 WAVECAR not read
 augmentation electrons   283.06513053297613     
 soft         electrons   0.0000000000000000     
 augmentation electrons   283.06513053297613     
 soft         electrons   0.0000000000000000     
 augmentation electrons   283.06513053297613     
 soft         electrons   0.0000000000000000     
 augmentation electrons   283.06513053297613     
 soft         electrons   0.0000000000000000     
 augmentation electrons   283.06513053297613     
 soft         electrons   0.0000000000000000     
 augmentation electrons   283.06513053297613     
 soft         electrons   0.0000000000000000     
 augmentation electrons   283.06513053297613     
 soft         electrons   0.0000000000000000     
 augmentation electrons   283.06513053297613     
 soft         electrons   0.0000000000000000     
 augmentation electrons   283.06513053297613     
 soft         electrons   0.0000000000000000     
 augmentation electrons   283.06513053297613     
 soft         electrons   0.0000000000000000     
 augmentation electrons   283.06513053297613     
 soft         electrons   0.0000000000000000     
 augmentation electrons   283.06513053297613     
 soft         electrons   0.0000000000000000     
 augmentation electrons   283.06513053297613     
 soft         electrons   0.0000000000000000     
 augmentation electrons   283.06513053297613     
 soft         electrons   0.0000000000000000     
 augmentation electrons   283.06513053297613     
 soft         electrons   0.0000000000000000     
 augmentation electrons   283.06513053297613     
 soft         electrons   0.0000000000000000     
 augmentation electrons   283.06513053297613     
 soft         electrons   0.0000000000000000     
 augmentation electrons   283.06513053297613     
 soft         electrons   0.0000000000000000     
 augmentation electrons   283.06513053297613     
 soft         electrons   0.0000000000000000     
 augmentation electrons   283.06513053297613     
 soft         electrons   0.0000000000000000     
 augmentation electrons   283.06513053297613     
 soft         electrons   0.0000000000000000     
 augmentation electrons   283.06513053297613     
 soft         electrons   0.0000000000000000     
 augmentation electrons   283.06513053297613     
 soft         electrons   0.0000000000000000     
 augmentation electrons   283.06513053297613     
 soft         electrons   0.0000000000000000     
 augmentation electrons   283.06513053297613     
 soft         electrons   0.0000000000000000     
 augmentation electrons   283.06513053297613     
 augmentation electrons   283.06513053297613     
 soft         electrons   0.0000000000000000     
 augmentation electrons   283.06513053297613     
 soft         electrons   0.0000000000000000     
 soft         electrons   0.0000000000000000     
 augmentation electrons   283.06513053297613     
 soft         electrons   0.0000000000000000     
 augmentation electrons   283.06513053297613     
 soft         electrons   0.0000000000000000     
 augmentation electrons   283.06513053297613     
 soft         electrons   0.0000000000000000     
 augmentation electrons   283.06513053297613     
 soft         electrons   0.0000000000000000     
 augmentation electrons   283.06513053297613     
 augmentation electrons   283.06513053297613     
 soft         electrons   0.0000000000000000     
 augmentation electrons   283.06513053297613     
 soft         electrons   0.0000000000000000     
 augmentation electrons   283.06513053297613     
 soft         electrons   0.0000000000000000     
 augmentation electrons   283.06513053297613     
 soft         electrons   0.0000000000000000     
 augmentation electrons   283.06513053297613     
 soft         electrons   0.0000000000000000     
 augmentation electrons   283.06513053297613     
 soft         electrons   0.0000000000000000     
 soft         electrons   0.0000000000000000     
 augmentation electrons   283.06513053297613     
 soft         electrons   0.0000000000000000     
 augmentation electrons   283.06513053297613     
 soft         electrons   0.0000000000000000     
 augmentation electrons   283.06513053297613     
 soft         electrons   0.0000000000000000     
 augmentation electrons   283.06513053297613     
 soft         electrons   0.0000000000000000     
 augmentation electrons   283.06513053297613     
 soft         electrons   0.0000000000000000     
 augmentation electrons   283.06513053297613     
 soft         electrons   0.0000000000000000     
 augmentation electrons   283.06513053297613     
 soft         electrons   0.0000000000000000     
 augmentation electrons   283.06513053297613     
 soft         electrons   0.0000000000000000     
 augmentation electrons   283.06513053297613     
 soft         electrons   0.0000000000000000     
 augmentation electrons   283.06513053297613     
 soft         electrons   0.0000000000000000     
 augmentation electrons   283.06513053297613     
 soft         electrons   0.0000000000000000     
 augmentation electrons   283.06513053297613     
 soft         electrons   0.0000000000000000     
 augmentation electrons   283.06513053297613     
 soft         electrons   0.0000000000000000     
 augmentation electrons   283.06513053297613     
 soft         electrons   0.0000000000000000     
 augmentation electrons   283.06513053297613     
 soft         electrons   0.0000000000000000     
 augmentation electrons   283.06513053297613     
 soft         electrons   0.0000000000000000     
 augmentation electrons   283.06513053297613     
 soft         electrons   0.0000000000000000     
 augmentation electrons   283.06513053297613     
 soft         electrons   0.0000000000000000     
 augmentation electrons   283.06513053297613     
 soft         electrons   0.0000000000000000     
 augmentation electrons   283.06513053297613     
 soft         electrons   0.0000000000000000     
 augmentation electrons   283.06513053297613     
 soft         electrons   0.0000000000000000     
 augmentation electrons   283.06513053297613     
 soft         electrons   0.0000000000000000     
 augmentation electrons   283.06513053297613     
 soft         electrons   0.0000000000000000     
 augmentation electrons   283.06513053297613     
 soft         electrons   0.0000000000000000     
 augmentation electrons   283.06513053297613     
 soft         electrons   0.0000000000000000     
 augmentation electrons   283.06513053297613     
 soft         electrons   0.0000000000000000     
 augmentation electrons   283.06513053297613     
 soft         electrons   0.0000000000000000     
 augmentation electrons   283.06513053297613     
 soft         electrons   0.0000000000000000     
 augmentation electrons   283.06513053297613     
 soft         electrons   0.0000000000000000     
 augmentation electrons   283.06513053297613     
 soft         electrons   0.0000000000000000     
 augmentation electrons   283.06513053297613     
 soft         electrons   0.0000000000000000     
 augmentation electrons   283.06513053297613     
 soft         electrons   0.0000000000000000     
 augmentation electrons   283.06513053297613     
 soft         electrons   0.0000000000000000     
 total        electrons   283.06513053297613     
 total        electrons   283.06513053297613     
 total        electrons   283.06513053297613     
 total        electrons   283.06513053297613     
 total        electrons   283.06513053297613     
 total        electrons   283.06513053297613     
 total        electrons   283.06513053297613     
 total        electrons   283.06513053297613     
 total        electrons   283.06513053297613     
 total        electrons   283.06513053297613     
 total        electrons   283.06513053297613     
 total        electrons   283.06513053297613     
 total        electrons   283.06513053297613     
 total        electrons   283.06513053297613     
 total        electrons   283.06513053297613     
 total        electrons   283.06513053297613     
 total        electrons   283.06513053297613     
 total        electrons   283.06513053297613     
 total        electrons   283.06513053297613     
 total        electrons   283.06513053297613     
 total        electrons   283.06513053297613     
 total        electrons   283.06513053297613     
 total        electrons   283.06513053297613     
 total        electrons   283.06513053297613     
 total        electrons   283.06513053297613     
 total        electrons   283.06513053297613     
 total        electrons   283.06513053297613     
 total        electrons   283.06513053297613     
 total        electrons   283.06513053297613     
 total        electrons   283.06513053297613     
 total        electrons   283.06513053297613     
 total        electrons   283.06513053297613     
 total        electrons   283.06513053297613     
 total        electrons   283.06513053297613     
 total        electrons   283.06513053297613     
 total        electrons   283.06513053297613     
 total        electrons   283.06513053297613     
 total        electrons   283.06513053297613     
 total        electrons   283.06513053297613     
 total        electrons   283.06513053297613     
 total        electrons   283.06513053297613     
 total        electrons   283.06513053297613     
 total        electrons   283.06513053297613     
 total        electrons   283.06513053297613     
 total        electrons   283.06513053297613     
 total        electrons   283.06513053297613     
 total        electrons   283.06513053297613     
 total        electrons   283.06513053297613     
 total        electrons   283.06513053297613     
 total        electrons   283.06513053297613     
 total        electrons   283.06513053297613     
 total        electrons   283.06513053297613     
 total        electrons   283.06513053297613     
 total        electrons   283.06513053297613     
 total        electrons   283.06513053297613     
 total        electrons   283.06513053297613     
 total        electrons   283.06513053297613     
 total        electrons   283.06513053297613     
 total        electrons   283.06513053297613     
 total        electrons   283.06513053297613     
 total        electrons   283.06513053297613     
 total        electrons   283.06513053297613     
 total        electrons   283.06513053297613     
 total        electrons   283.06513053297613     
 total        electrons   283.06513053297613     
 total        electrons   283.06513053297613     
 total        electrons   283.06513053297613     
 total        electrons   283.06513053297613     
 total        electrons   283.06513053297613     
 total        electrons   283.06513053297613     
 total        electrons   283.06513053297613     
 total        electrons   283.06513053297613     
 augmentation electrons   1284.9953543078657     
 soft         electrons   0.0000000000000000     
 augmentation electrons   1284.9953543078657     
 soft         electrons   0.0000000000000000     
 augmentation electrons   1284.9953543078657     
 soft         electrons   0.0000000000000000     
 augmentation electrons   1284.9953543078657     
 soft         electrons   0.0000000000000000     
 augmentation electrons   1284.9953543078657     
 soft         electrons   0.0000000000000000     
 augmentation electrons   1284.9953543078657     
 soft         electrons   0.0000000000000000     
 augmentation electrons   1284.9953543078657     
 soft         electrons   0.0000000000000000     
 augmentation electrons   1284.9953543078657     
 soft         electrons   0.0000000000000000     
 augmentation electrons   1284.9953543078657     
 soft         electrons   0.0000000000000000     
 augmentation electrons   1284.9953543078657     
 soft         electrons   0.0000000000000000     
 augmentation electrons   1284.9953543078657     
 soft         electrons   0.0000000000000000     
 augmentation electrons   1284.9953543078657     
 soft         electrons   0.0000000000000000     
 augmentation electrons   1284.9953543078657     
 soft         electrons   0.0000000000000000     
 augmentation electrons   1284.9953543078657     
 soft         electrons   0.0000000000000000     
 augmentation electrons   1284.9953543078657     
 soft         electrons   0.0000000000000000     
 augmentation electrons   1284.9953543078657     
 soft         electrons   0.0000000000000000     
 augmentation electrons   1284.9953543078657     
 soft         electrons   0.0000000000000000     
 augmentation electrons   1284.9953543078657     
 soft         electrons   0.0000000000000000     
 augmentation electrons   1284.9953543078657     
 soft         electrons   0.0000000000000000     
 augmentation electrons   1284.9953543078657     
 soft         electrons   0.0000000000000000     
 augmentation electrons   1284.9953543078657     
 soft         electrons   0.0000000000000000     
 augmentation electrons   1284.9953543078657     
 soft         electrons   0.0000000000000000     
 augmentation electrons   1284.9953543078657     
 soft         electrons   0.0000000000000000     
 augmentation electrons   1284.9953543078657     
 soft         electrons   0.0000000000000000     
 augmentation electrons   1284.9953543078657     
 soft         electrons   0.0000000000000000     
 augmentation electrons   1284.9953543078657     
 soft         electrons   0.0000000000000000     
 augmentation electrons   1284.9953543078657     
 soft         electrons   0.0000000000000000     
 augmentation electrons   1284.9953543078657     
 soft         electrons   0.0000000000000000     
 augmentation electrons   1284.9953543078657     
 soft         electrons   0.0000000000000000     
 augmentation electrons   1284.9953543078657     
 soft         electrons   0.0000000000000000     
 augmentation electrons   1284.9953543078657     
 soft         electrons   0.0000000000000000     
 augmentation electrons   1284.9953543078657     
 soft         electrons   0.0000000000000000     
 augmentation electrons   1284.9953543078657     
 soft         electrons   0.0000000000000000     
 augmentation electrons   1284.9953543078657     
 soft         electrons   0.0000000000000000     
 augmentation electrons   1284.9953543078657     
 soft         electrons   0.0000000000000000     
 augmentation electrons   1284.9953543078657     
 soft         electrons   0.0000000000000000     
 augmentation electrons   1284.9953543078657     
 soft         electrons   0.0000000000000000     
 augmentation electrons   1284.9953543078657     
 augmentation electrons   1284.9953543078657     
 soft         electrons   0.0000000000000000     
 augmentation electrons   1284.9953543078657     
 soft         electrons   0.0000000000000000     
 augmentation electrons   1284.9953543078657     
 soft         electrons   0.0000000000000000     
 augmentation electrons   1284.9953543078657     
 soft         electrons   0.0000000000000000     
 augmentation electrons   1284.9953543078657     
 soft         electrons   0.0000000000000000     
 augmentation electrons   1284.9953543078657     
 soft         electrons   0.0000000000000000     
 augmentation electrons   1284.9953543078657     
 soft         electrons   0.0000000000000000     
 augmentation electrons   1284.9953543078657     
 soft         electrons   0.0000000000000000     
 augmentation electrons   1284.9953543078657     
 soft         electrons   0.0000000000000000     
 augmentation electrons   1284.9953543078657     
 soft         electrons   0.0000000000000000     
 augmentation electrons   1284.9953543078657     
 soft         electrons   0.0000000000000000     
 augmentation electrons   1284.9953543078657     
 soft         electrons   0.0000000000000000     
 augmentation electrons   1284.9953543078657     
 soft         electrons   0.0000000000000000     
 augmentation electrons   1284.9953543078657     
 soft         electrons   0.0000000000000000     
 augmentation electrons   1284.9953543078657     
 soft         electrons   0.0000000000000000     
 augmentation electrons   1284.9953543078657     
 soft         electrons   0.0000000000000000     
 augmentation electrons   1284.9953543078657     
 soft         electrons   0.0000000000000000     
 augmentation electrons   1284.9953543078657     
 soft         electrons   0.0000000000000000     
 augmentation electrons   1284.9953543078657     
 soft         electrons   0.0000000000000000     
 augmentation electrons   1284.9953543078657     
 soft         electrons   0.0000000000000000     
 augmentation electrons   1284.9953543078657     
 soft         electrons   0.0000000000000000     
 augmentation electrons   1284.9953543078657     
 soft         electrons   0.0000000000000000     
 augmentation electrons   1284.9953543078657     
 soft         electrons   0.0000000000000000     
 augmentation electrons   1284.9953543078657     
 soft         electrons   0.0000000000000000     
 augmentation electrons   1284.9953543078657     
 soft         electrons   0.0000000000000000     
 augmentation electrons   1284.9953543078657     
 soft         electrons   0.0000000000000000     
 augmentation electrons   1284.9953543078657     
 soft         electrons   0.0000000000000000     
 augmentation electrons   1284.9953543078657     
 soft         electrons   0.0000000000000000     
 augmentation electrons   1284.9953543078657     
 soft         electrons   0.0000000000000000     
 augmentation electrons   1284.9953543078657     
 soft         electrons   0.0000000000000000     
 augmentation electrons   1284.9953543078657     
 soft         electrons   0.0000000000000000     
 augmentation electrons   1284.9953543078657     
 soft         electrons   0.0000000000000000     
 augmentation electrons   1284.9953543078657     
 soft         electrons   0.0000000000000000     
 augmentation electrons   1284.9953543078657     
 soft         electrons   0.0000000000000000     
 soft         electrons   0.0000000000000000     
 total        electrons   1284.9953543078657     
 total        electrons   1284.9953543078657     
 total        electrons   1284.9953543078657     
 total        electrons   1284.9953543078657     
 total        electrons   1284.9953543078657     
 total        electrons   1284.9953543078657     
 total        electrons   1284.9953543078657     
 total        electrons   1284.9953543078657     
 total        electrons   1284.9953543078657     
 total        electrons   1284.9953543078657     
 total        electrons   1284.9953543078657     
 total        electrons   1284.9953543078657     
 total        electrons   1284.9953543078657     
 total        electrons   1284.9953543078657     
 total        electrons   1284.9953543078657     
 total        electrons   1284.9953543078657     
 total        electrons   1284.9953543078657     
 total        electrons   1284.9953543078657     
 total        electrons   1284.9953543078657     
 total        electrons   1284.9953543078657     
 total        electrons   1284.9953543078657     
 total        electrons   1284.9953543078657     
 total        electrons   1284.9953543078657     
 total        electrons   1284.9953543078657     
 total        electrons   1284.9953543078657     
 total        electrons   1284.9953543078657     
 total        electrons   1284.9953543078657     
 total        electrons   1284.9953543078657     
 total        electrons   1284.9953543078657     
 total        electrons   1284.9953543078657     
 total        electrons   1284.9953543078657     
 total        electrons   1284.9953543078657     
 total        electrons   1284.9953543078657     
 total        electrons   1284.9953543078657     
 total        electrons   1284.9953543078657     
 total        electrons   1284.9953543078657     
 total        electrons   1284.9953543078657     
 total        electrons   1284.9953543078657     
 total        electrons   1284.9953543078657     
 total        electrons   1284.9953543078657     
 total        electrons   1284.9953543078657     
 total        electrons   1284.9953543078657     
 total        electrons   1284.9953543078657     
 total        electrons   1284.9953543078657     
 total        electrons   1284.9953543078657     
 total        electrons   1284.9953543078657     
 total        electrons   1284.9953543078657     
 total        electrons   1284.9953543078657     
 total        electrons   1284.9953543078657     
 total        electrons   1284.9953543078657     
 total        electrons   1284.9953543078657     
 total        electrons   1284.9953543078657     
 total        electrons   1284.9953543078657     
 total        electrons   1284.9953543078657     
 total        electrons   1284.9953543078657     
 total        electrons   1284.9953543078657     
 total        electrons   1284.9953543078657     
 total        electrons   1284.9953543078657     
 total        electrons   1284.9953543078657     
 total        electrons   1284.9953543078657     
 total        electrons   1284.9953543078657     
 total        electrons   1284.9953543078657     
 total        electrons   1284.9953543078657     
 total        electrons   1284.9953543078657     
 total        electrons   1284.9953543078657     
 total        electrons   1284.9953543078657     
 total        electrons   1284.9953543078657     
 total        electrons   1284.9953543078657     
 total        electrons   1284.9953543078657     
 total        electrons   1284.9953543078657     
 total        electrons   1284.9953543078657     
 total        electrons   1284.9953543078657     
 entering main loop
       N       E                     dE             d eps       ncg     rms          rms(c)
DAV:   1     0.245525827009E+04    0.24553E+04   -0.10307E+05  8464   0.127E+03
DAV:   2    -0.207571034330E+03   -0.26628E+04   -0.24677E+04  9568   0.313E+02
DAV:   3    -0.650333959513E+03   -0.44276E+03   -0.42054E+03 11944   0.147E+02
DAV:   4    -0.688250117172E+03   -0.37916E+02   -0.36242E+02 13736   0.468E+01
DAV:   5    -0.690685968424E+03   -0.24359E+01   -0.23529E+01 14440   0.111E+01    0.147E+02
RMM:   6    -0.637857007012E+03    0.52829E+02   -0.11367E+03 11526   0.874E+01    0.720E+01
RMM:   7    -0.727974828841E+03   -0.90118E+02   -0.35932E+02 11685   0.367E+01    0.543E+01
RMM:   8    -0.628173958793E+03    0.99801E+02   -0.12366E+02 11030   0.257E+01    0.375E+01
RMM:   9    -0.602225645292E+03    0.25948E+02   -0.37029E+01 11059   0.149E+01    0.284E+01
RMM:  10    -0.587470709162E+03    0.14755E+02   -0.22493E+01  8896   0.150E+01    0.200E+01
RMM:  11    -0.586616680598E+03    0.85403E+00   -0.71189E+00 10427   0.668E+00    0.165E+01
RMM:  12    -0.586623480267E+03   -0.67997E-02   -0.21898E+00 11604   0.192E+00    0.150E+01
RMM:  13    -0.586350952818E+03    0.27253E+00   -0.74298E-01  9773   0.226E+00    0.133E+01
RMM:  14    -0.586350411681E+03    0.54114E-03   -0.32482E+00  9425   0.544E+00    0.924E+00
RMM:  15    -0.585701741811E+03    0.64867E+00   -0.12900E+00  9286   0.376E+00    0.524E+00
RMM:  16    -0.585435759410E+03    0.26598E+00   -0.23734E+00 11241   0.298E+00    0.373E+00
RMM:  17    -0.585330396817E+03    0.10536E+00   -0.64081E-01 11312   0.164E+00    0.223E+00
RMM:  18    -0.585350663696E+03   -0.20267E-01   -0.29004E-01 11557   0.903E-01    0.171E+00
RMM:  19    -0.585329484404E+03    0.21179E-01   -0.11060E-01  9221   0.886E-01    0.125E+00
RMM:  20    -0.585323624886E+03    0.58595E-02   -0.75879E-02 11218   0.557E-01    0.939E-01
RMM:  21    -0.585312832906E+03    0.10792E-01   -0.27850E-02  9512   0.489E-01    0.241E-01
RMM:  22    -0.585314827266E+03   -0.19944E-02   -0.15711E-02 11447   0.186E-01    0.261E-01
RMM:  23    -0.585315061343E+03   -0.23408E-03   -0.33667E-03 10327   0.128E-01    0.121E-01
RMM:  24    -0.585315965160E+03   -0.90382E-03   -0.16037E-03  9987   0.899E-02    0.140E-01
RMM:  25    -0.585316476134E+03   -0.51097E-03   -0.76648E-04  9017   0.798E-02    0.728E-02
RMM:  26    -0.585317081897E+03   -0.60576E-03   -0.67938E-04 11279   0.373E-02    0.712E-02
RMM:  27    -0.585317922265E+03   -0.84037E-03   -0.52071E-04 10150   0.522E-02    0.557E-02
RMM:  28    -0.585318460156E+03   -0.53789E-03   -0.27970E-04 10965   0.233E-02    0.404E-02
RMM:  29    -0.585318787598E+03   -0.32744E-03   -0.18397E-04 10511   0.275E-02    0.204E-02
RMM:  30    -0.585318918429E+03   -0.13083E-03   -0.45927E-05  9822   0.119E-02    0.148E-02
RMM:  31    -0.585319006462E+03   -0.88033E-04   -0.21537E-05  7570   0.671E-03    0.106E-02
RMM:  32    -0.585319104728E+03   -0.98266E-04   -0.17545E-05  7664   0.957E-03    0.831E-03
RMM:  33    -0.585319189757E+03   -0.85029E-04   -0.14054E-05  7060   0.790E-03    0.819E-03
RMM:  34    -0.585319339702E+03   -0.14994E-03   -0.13613E-05  6887   0.120E-02    0.137E-02
RMM:  35    -0.585319439107E+03   -0.99405E-04   -0.12818E-05  6823   0.118E-02    0.908E-03
RMM:  36    -0.585319500355E+03   -0.61248E-04   -0.81650E-06  6425   0.749E-03    0.630E-03
RMM:  37    -0.585319547928E+03   -0.47573E-04   -0.49635E-06  6148   0.360E-03    0.262E-03
RMM:  38    -0.585319566271E+03   -0.18343E-04   -0.17185E-06  5373   0.249E-03    0.286E-03
RMM:  39    -0.585319574083E+03   -0.78118E-05   -0.91666E-07  5139   0.246E-03    0.122E-03
RMM:  40    -0.585319579138E+03   -0.50555E-05   -0.63478E-07  5113   0.199E-03    0.188E-03
RMM:  41    -0.585319580855E+03   -0.17165E-05   -0.45118E-07  5017   0.212E-03    0.667E-04
RMM:  42    -0.585319581699E+03   -0.84446E-06   -0.25175E-07  3599   0.114E-03
   1 F= -.58531958E+03 E0= -.58531978E+03  d E =-.585320E+03
 curvature:   0.00 expect dE= 0.000E+00 dE for cont linesearch  0.000E+00
 trial: gam= 0.00000 g(F)=  0.117E+01 g(S)=  0.000E+00 ort = 0.000E+00 (trialstep = 0.100E+01)
 search vector abs. value=  0.117E+01
 bond charge predicted
       N       E                     dE             d eps       ncg     rms          rms(c)
DAV:   1    -0.585872894884E+03   -0.55331E+00   -0.18023E+01  9216   0.730E+00    0.138E+00
RMM:   2    -0.585933092743E+03   -0.60198E-01   -0.81164E-01 11028   0.162E+00    0.105E+00
RMM:   3    -0.586030437029E+03   -0.97344E-01   -0.15014E-01 10865   0.964E-01    0.251E+00
RMM:   4    -0.585931251493E+03    0.99186E-01   -0.68178E-02  9915   0.773E-01    0.526E-01
RMM:   5    -0.585934728043E+03   -0.34766E-02   -0.34711E-02 10016   0.508E-01    0.684E-01
RMM:   6    -0.585929596247E+03    0.51318E-02   -0.13410E-02  8920   0.394E-01    0.334E-01
RMM:   7    -0.585928308714E+03    0.12875E-02   -0.56766E-03 10107   0.186E-01    0.162E-01
RMM:   8    -0.585928253052E+03    0.55662E-04   -0.19386E-03 10682   0.102E-01    0.100E-01
RMM:   9    -0.585928126603E+03    0.12645E-03   -0.87609E-04 11213   0.541E-02    0.601E-02
RMM:  10    -0.585928124936E+03    0.16668E-05   -0.31828E-04  9384   0.513E-02    0.603E-02
RMM:  11    -0.585928101823E+03    0.23113E-04   -0.12077E-04  9478   0.320E-02    0.406E-02
RMM:  12    -0.585928094863E+03    0.69595E-05   -0.63040E-05  9061   0.215E-02    0.269E-02
RMM:  13    -0.585928096586E+03   -0.17234E-05   -0.43259E-05  9129   0.141E-02    0.127E-02
RMM:  14    -0.585928103298E+03   -0.67112E-05   -0.16508E-05  7615   0.747E-03    0.685E-03
RMM:  15    -0.585928106426E+03   -0.31287E-05   -0.50695E-06  6314   0.422E-03    0.321E-03
RMM:  16    -0.585928112870E+03   -0.64436E-05   -0.16219E-06  5409   0.392E-03    0.500E-03
RMM:  17    -0.585928116047E+03   -0.31775E-05   -0.11514E-06  5208   0.431E-03    0.253E-03
RMM:  18    -0.585928120928E+03   -0.48807E-05   -0.71845E-07  5160   0.245E-03    0.154E-03
RMM:  19    -0.585928124478E+03   -0.35500E-05   -0.42155E-07  5077   0.194E-03    0.957E-04
RMM:  20    -0.585928131455E+03   -0.69773E-05   -0.66752E-07  5080   0.151E-03    0.122E-03
RMM:  21    -0.585928135816E+03   -0.43607E-05   -0.47488E-07  5045   0.186E-03    0.139E-03
RMM:  22    -0.585928138524E+03   -0.27078E-05   -0.35656E-07  4730   0.150E-03    0.897E-04
RMM:  23    -0.585928141090E+03   -0.25663E-05   -0.31163E-07  4140   0.134E-03    0.577E-04
RMM:  24    -0.585928143010E+03   -0.19203E-05   -0.24950E-07  3714   0.111E-03    0.306E-04
RMM:  25    -0.585928145079E+03   -0.20680E-05   -0.24131E-07  3649   0.104E-03    0.356E-04
RMM:  26    -0.585928145903E+03   -0.82445E-06   -0.14614E-07  3276   0.986E-04
   2 F= -.58592815E+03 E0= -.58592818E+03  d E =-.608564E+00
 trial-energy change:   -0.608564  1 .order   -0.646858   -1.171861   -0.121855
 step:   1.1553(harm=  1.1161)  dis= 0.27470  next Energy=  -585.937465 (dE=-0.618E+00)
 bond charge predicted
       N       E                     dE             d eps       ncg     rms          rms(c)
DAV:   1    -0.585937018141E+03   -0.88731E-02   -0.45336E-01  8864   0.120E+00    0.188E-01
RMM:   2    -0.585937670199E+03   -0.65206E-03   -0.10726E-02 10454   0.218E-01    0.127E-01
RMM:   3    -0.585940169203E+03   -0.24990E-02   -0.32277E-03 10927   0.141E-01    0.396E-01
RMM:   4    -0.585937701029E+03    0.24682E-02   -0.13735E-03  9872   0.113E-01    0.659E-02
RMM:   5    -0.585937723864E+03   -0.22835E-04   -0.57570E-04 10562   0.556E-02    0.680E-02
RMM:   6    -0.585937688788E+03    0.35076E-04   -0.19895E-04  9236   0.441E-02    0.455E-02
RMM:   7    -0.585937666319E+03    0.22468E-04   -0.99747E-05  9845   0.246E-02    0.218E-02
RMM:   8    -0.585937666935E+03   -0.61522E-06   -0.36307E-05  9304   0.141E-02    0.163E-02
RMM:   9    -0.585937666819E+03    0.11529E-06   -0.15225E-05  7219   0.108E-02    0.174E-02
RMM:  10    -0.585937664106E+03    0.27137E-05   -0.69609E-06  6239   0.867E-03    0.699E-03
RMM:  11    -0.585937664581E+03   -0.47489E-06   -0.42101E-06  5932   0.508E-03
   3 F= -.58593766E+03 E0= -.58593768E+03  d E =-.618083E+00
 curvature:  -0.49 expect dE=-0.361E-05 dE for cont linesearch -0.304E-05
 trial: gam=-0.00228 g(F)=  0.731E-05 g(S)=  0.000E+00 ort = 0.268E-02 (trialstep = 0.103E+01)
 search vector abs. value=  0.117E-05
 reached required accuracy - stopping structural energy minimisation
 augmentation electrons   31.433006570527525     
 soft         electrons   251.69470043512271     
 augmentation electrons   31.433006570527525     
 soft         electrons   251.69470043512271     
 augmentation electrons   31.433006570527525     
 soft         electrons   251.69470043512271     
 augmentation electrons   31.433006570527525     
 soft         electrons   251.69470043512271     
 augmentation electrons   31.433006570527525     
 soft         electrons   251.69470043512271     
 augmentation electrons   31.433006570527525     
 soft         electrons   251.69470043512271     
 augmentation electrons   31.433006570527525     
 soft         electrons   251.69470043512271     
 augmentation electrons   31.433006570527525     
 soft         electrons   251.69470043512271     
 augmentation electrons   31.433006570527525     
 soft         electrons   251.69470043512271     
 augmentation electrons   31.433006570527525     
 soft         electrons   251.69470043512271     
 augmentation electrons   31.433006570527525     
 soft         electrons   251.69470043512271     
 augmentation electrons   31.433006570527525     
 soft         electrons   251.69470043512271     
 augmentation electrons   31.433006570527525     
 soft         electrons   251.69470043512271     
 augmentation electrons   31.433006570527525     
 soft         electrons   251.69470043512271     
 augmentation electrons   31.433006570527525     
 soft         electrons   251.69470043512271     
 augmentation electrons   31.433006570527525     
 soft         electrons   251.69470043512271     
 augmentation electrons   31.433006570527525     
 soft         electrons   251.69470043512271     
 augmentation electrons   31.433006570527525     
 soft         electrons   251.69470043512271     
 augmentation electrons   31.433006570527525     
 soft         electrons   251.69470043512271     
 augmentation electrons   31.433006570527525     
 soft         electrons   251.69470043512271     
 augmentation electrons   31.433006570527525     
 augmentation electrons   31.433006570527525     
 soft         electrons   251.69470043512271     
 augmentation electrons   31.433006570527525     
 soft         electrons   251.69470043512271     
 augmentation electrons   31.433006570527525     
 soft         electrons   251.69470043512271     
 augmentation electrons   31.433006570527525     
 soft         electrons   251.69470043512271     
 augmentation electrons   31.433006570527525     
 soft         electrons   251.69470043512271     
 augmentation electrons   31.433006570527525     
 soft         electrons   251.69470043512271     
 augmentation electrons   31.433006570527525     
 soft         electrons   251.69470043512271     
 augmentation electrons   31.433006570527525     
 soft         electrons   251.69470043512271     
 augmentation electrons   31.433006570527525     
 soft         electrons   251.69470043512271     
 augmentation electrons   31.433006570527525     
 soft         electrons   251.69470043512271     
 augmentation electrons   31.433006570527525     
 soft         electrons   251.69470043512271     
 augmentation electrons   31.433006570527525     
 soft         electrons   251.69470043512271     
 augmentation electrons   31.433006570527525     
 soft         electrons   251.69470043512271     
 augmentation electrons   31.433006570527525     
 soft         electrons   251.69470043512271     
 augmentation electrons   31.433006570527525     
 soft         electrons   251.69470043512271     
 augmentation electrons   31.433006570527525     
 soft         electrons   251.69470043512271     
 augmentation electrons   31.433006570527525     
 soft         electrons   251.69470043512271     
 augmentation electrons   31.433006570527525     
 soft         electrons   251.69470043512271     
 augmentation electrons   31.433006570527525     
 soft         electrons   251.69470043512271     
 augmentation electrons   31.433006570527525     
 soft         electrons   251.69470043512271     
 augmentation electrons   31.433006570527525     
 soft         electrons   251.69470043512271     
 augmentation electrons   31.433006570527525     
 soft         electrons   251.69470043512271     
 augmentation electrons   31.433006570527525     
 soft         electrons   251.69470043512271     
 augmentation electrons   31.433006570527525     
 soft         electrons   251.69470043512271     
 augmentation electrons   31.433006570527525     
 soft         electrons   251.69470043512271     
 augmentation electrons   31.433006570527525     
 soft         electrons   251.69470043512271     
 augmentation electrons   31.433006570527525     
 soft         electrons   251.69470043512271     
 augmentation electrons   31.433006570527525     
 soft         electrons   251.69470043512271     
 augmentation electrons   31.433006570527525     
 soft         electrons   251.69470043512271     
 augmentation electrons   31.433006570527525     
 soft         electrons   251.69470043512271     
 augmentation electrons   31.433006570527525     
 soft         electrons   251.69470043512271     
 augmentation electrons   31.433006570527525     
 soft         electrons   251.69470043512271     
 augmentation electrons   31.433006570527525     
 soft         electrons   251.69470043512271     
 augmentation electrons   31.433006570527525     
 soft         electrons   251.69470043512271     
 augmentation electrons   31.433006570527525     
 soft         electrons   251.69470043512271     
 augmentation electrons   31.433006570527525     
 soft         electrons   251.69470043512271     
 augmentation electrons   31.433006570527525     
 soft         electrons   251.69470043512271     
 augmentation electrons   31.433006570527525     
 soft         electrons   251.69470043512271     
 augmentation electrons   31.433006570527525     
 soft         electrons   251.69470043512271     
 augmentation electrons   31.433006570527525     
 soft         electrons   251.69470043512271     
 augmentation electrons   31.433006570527525     
 soft         electrons   251.69470043512271     
 augmentation electrons   31.433006570527525     
 soft         electrons   251.69470043512271     
 augmentation electrons   31.433006570527525     
 soft         electrons   251.69470043512271     
 augmentation electrons   31.433006570527525     
 soft         electrons   251.69470043512271     
 augmentation electrons   31.433006570527525     
 soft         electrons   251.69470043512271     
 augmentation electrons   31.433006570527525     
 soft         electrons   251.69470043512271     
 augmentation electrons   31.433006570527525     
 soft         electrons   251.69470043512271     
 augmentation electrons   31.433006570527525     
 soft         electrons   251.69470043512271     
 augmentation electrons   31.433006570527525     
 soft         electrons   251.69470043512271     
 augmentation electrons   31.433006570527525     
 soft         electrons   251.69470043512271     
 soft         electrons   251.69470043512271     
 augmentation electrons   31.433006570527525     
 soft         electrons   251.69470043512271     
 total        electrons   283.12770700565022     
 total        electrons   283.12770700565022     
 total        electrons   283.12770700565022     
 total        electrons   283.12770700565022     
 total        electrons   283.12770700565022     
 total        electrons   283.12770700565022     
 total        electrons   283.12770700565022     
 total        electrons   283.12770700565022     
 total        electrons   283.12770700565022     
 total        electrons   283.12770700565022     
 total        electrons   283.12770700565022     
 total        electrons   283.12770700565022     
 total        electrons   283.12770700565022     
 total        electrons   283.12770700565022     
 total        electrons   283.12770700565022     
 total        electrons   283.12770700565022     
 total        electrons   283.12770700565022     
 total        electrons   283.12770700565022     
 total        electrons   283.12770700565022     
 total        electrons   283.12770700565022     
 total        electrons   283.12770700565022     
 total        electrons   283.12770700565022     
 total        electrons   283.12770700565022     
 total        electrons   283.12770700565022     
 total        electrons   283.12770700565022     
 total        electrons   283.12770700565022     
 total        electrons   283.12770700565022     
 total        electrons   283.12770700565022     
 total        electrons   283.12770700565022     
 total        electrons   283.12770700565022     
 total        electrons   283.12770700565022     
 total        electrons   283.12770700565022     
 total        electrons   283.12770700565022     
 total        electrons   283.12770700565022     
 total        electrons   283.12770700565022     
 total        electrons   283.12770700565022     
 total        electrons   283.12770700565022     
 total        electrons   283.12770700565022     
 total        electrons   283.12770700565022     
 total        electrons   283.12770700565022     
 total        electrons   283.12770700565022     
 total        electrons   283.12770700565022     
 total        electrons   283.12770700565022     
 total        electrons   283.12770700565022     
 total        electrons   283.12770700565022     
 total        electrons   283.12770700565022     
 total        electrons   283.12770700565022     
 total        electrons   283.12770700565022     
 total        electrons   283.12770700565022     
 total        electrons   283.12770700565022     
 total        electrons   283.12770700565022     
 total        electrons   283.12770700565022     
 total        electrons   283.12770700565022     
 total        electrons   283.12770700565022     
 total        electrons   283.12770700565022     
 total        electrons   283.12770700565022     
 total        electrons   283.12770700565022     
 total        electrons   283.12770700565022     
 total        electrons   283.12770700565022     
 total        electrons   283.12770700565022     
 total        electrons   283.12770700565022     
 total        electrons   283.12770700565022     
 total        electrons   283.12770700565022     
 total        electrons   283.12770700565022     
 total        electrons   283.12770700565022     
 total        electrons   283.12770700565022     
 total        electrons   283.12770700565022     
 total        electrons   283.12770700565022     
 total        electrons   283.12770700565022     
 total        electrons   283.12770700565022     
 total        electrons   283.12770700565022     
 total        electrons   283.12770700565022     
Note: The following floating-point exceptions are signalling: IEEE_OVERFLOW_FLAG
Note: The following floating-point exceptions are signalling: IEEE_OVERFLOW_FLAG
Note: The following floating-point exceptions are signalling: IEEE_OVERFLOW_FLAG
Note: The following floating-point exceptions are signalling: IEEE_OVERFLOW_FLAG
Note: The following floating-point exceptions are signalling: IEEE_OVERFLOW_FLAG
Note: The following floating-point exceptions are signalling: IEEE_OVERFLOW_FLAG
Note: The following floating-point exceptions are signalling: IEEE_OVERFLOW_FLAG
Note: The following floating-point exceptions are signalling: IEEE_OVERFLOW_FLAG
Note: The following floating-point exceptions are signalling: IEEE_OVERFLOW_FLAG
Note: The following floating-point exceptions are signalling: IEEE_OVERFLOW_FLAG
Note: The following floating-point exceptions are signalling: IEEE_OVERFLOW_FLAG
Note: The following floating-point exceptions are signalling: IEEE_OVERFLOW_FLAG
Note: The following floating-point exceptions are signalling: IEEE_OVERFLOW_FLAG
Note: The following floating-point exceptions are signalling: IEEE_OVERFLOW_FLAG
Note: The following floating-point exceptions are signalling: IEEE_OVERFLOW_FLAG
Note: The following floating-point exceptions are signalling: IEEE_OVERFLOW_FLAG
Note: The following floating-point exceptions are signalling: IEEE_OVERFLOW_FLAG
Note: The following floating-point exceptions are signalling: IEEE_OVERFLOW_FLAG
Note: The following floating-point exceptions are signalling: IEEE_OVERFLOW_FLAG
Note: The following floating-point exceptions are signalling: IEEE_OVERFLOW_FLAG
Note: The following floating-point exceptions are signalling: IEEE_OVERFLOW_FLAG
Note: The following floating-point exceptions are signalling: IEEE_OVERFLOW_FLAG
Note: The following floating-point exceptions are signalling: IEEE_OVERFLOW_FLAG
Note: The following floating-point exceptions are signalling: IEEE_OVERFLOW_FLAG
Note: The following floating-point exceptions are signalling: IEEE_OVERFLOW_FLAG
Note: The following floating-point exceptions are signalling: IEEE_OVERFLOW_FLAG
Note: The following floating-point exceptions are signalling: IEEE_OVERFLOW_FLAG
Note: The following floating-point exceptions are signalling: IEEE_OVERFLOW_FLAG
Note: The following floating-point exceptions are signalling: IEEE_OVERFLOW_FLAG
Note: The following floating-point exceptions are signalling: IEEE_OVERFLOW_FLAG
Note: The following floating-point exceptions are signalling: IEEE_OVERFLOW_FLAG
Note: The following floating-point exceptions are signalling: IEEE_OVERFLOW_FLAG
Note: The following floating-point exceptions are signalling: IEEE_OVERFLOW_FLAG
Note: The following floating-point exceptions are signalling: IEEE_OVERFLOW_FLAG
Note: The following floating-point exceptions are signalling: IEEE_OVERFLOW_FLAG
Note: The following floating-point exceptions are signalling: IEEE_OVERFLOW_FLAG
Note: The following floating-point exceptions are signalling: IEEE_OVERFLOW_FLAG
Note: The following floating-point exceptions are signalling: IEEE_OVERFLOW_FLAG
Note: The following floating-point exceptions are signalling: IEEE_OVERFLOW_FLAG
Note: The following floating-point exceptions are signalling: IEEE_OVERFLOW_FLAG
Note: The following floating-point exceptions are signalling: IEEE_OVERFLOW_FLAG
Note: The following floating-point exceptions are signalling: IEEE_OVERFLOW_FLAG
Note: The following floating-point exceptions are signalling: IEEE_OVERFLOW_FLAG
Note: The following floating-point exceptions are signalling: IEEE_OVERFLOW_FLAG
Note: The following floating-point exceptions are signalling: IEEE_OVERFLOW_FLAG
Note: The following floating-point exceptions are signalling: IEEE_OVERFLOW_FLAG
Note: The following floating-point exceptions are signalling: IEEE_OVERFLOW_FLAG
Note: The following floating-point exceptions are signalling: IEEE_OVERFLOW_FLAG
Note: The following floating-point exceptions are signalling: IEEE_OVERFLOW_FLAG
Note: The following floating-point exceptions are signalling: IEEE_OVERFLOW_FLAG
Note: The following floating-point exceptions are signalling: IEEE_OVERFLOW_FLAG
Note: The following floating-point exceptions are signalling: IEEE_OVERFLOW_FLAG
Note: The following floating-point exceptions are signalling: IEEE_OVERFLOW_FLAG
Note: The following floating-point exceptions are signalling: IEEE_OVERFLOW_FLAG
Note: The following floating-point exceptions are signalling: IEEE_OVERFLOW_FLAG
Note: The following floating-point exceptions are signalling: IEEE_OVERFLOW_FLAG
Note: The following floating-point exceptions are signalling: IEEE_OVERFLOW_FLAG
Note: The following floating-point exceptions are signalling: IEEE_OVERFLOW_FLAG
Note: The following floating-point exceptions are signalling: IEEE_OVERFLOW_FLAG
Note: The following floating-point exceptions are signalling: IEEE_OVERFLOW_FLAG
Note: The following floating-point exceptions are signalling: IEEE_OVERFLOW_FLAG
Note: The following floating-point exceptions are signalling: IEEE_OVERFLOW_FLAG
Note: The following floating-point exceptions are signalling: IEEE_OVERFLOW_FLAG
Note: The following floating-point exceptions are signalling: IEEE_OVERFLOW_FLAG
Note: The following floating-point exceptions are signalling: IEEE_OVERFLOW_FLAG
Note: The following floating-point exceptions are signalling: IEEE_OVERFLOW_FLAG
Note: The following floating-point exceptions are signalling: IEEE_OVERFLOW_FLAG
Note: The following floating-point exceptions are signalling: IEEE_OVERFLOW_FLAG
Note: The following floating-point exceptions are signalling: IEEE_OVERFLOW_FLAG
Note: The following floating-point exceptions are signalling: IEEE_OVERFLOW_FLAG
Note: The following floating-point exceptions are signalling: IEEE_OVERFLOW_FLAG
Note: The following floating-point exceptions are signalling: IEEE_OVERFLOW_FLAG
