   56   56   85    1
  0.1275712E+02  0.6078000E-09  0.6078000E-09  0.2233000E-08  0.5000000E-15
   1.0000000000000000E-004
  CAR 
 Name                                    
    204     41    132

  0.3742002E-15  0.3742002E-15  0.1262379E-14  0.1234568E-01
    1      -11.087094   1.000000
    2      -10.520404   1.000000
    3       -9.725309   1.000000
    4       -8.707814   1.000000
    5       -8.239297   1.000000
    6       -8.198765   1.000000
    7       -7.821099   1.000000
    8       -7.755114   1.000000
    9       -7.617012   1.000000
   10       -7.491909   1.000000
   11       -7.344881   1.000000
   12       -7.298802   1.000000
   13       -7.283454   1.000000
   14       -7.280222   1.000000
   15       -6.962893   1.000000
   16       -6.941685   1.000000
   17       -6.909588   1.000000
   18       -6.776199   1.000000
   19       -6.649618   1.000000
   20       -6.516693   1.000000
   21       -6.387255   1.000000
   22       -5.960480   1.000000
   23       -5.779695   1.000000
   24       -5.755194   1.000000
   25       -5.516166   1.000000
   26       -5.463674   1.000000
   27       -5.407580   1.000000
   28       -5.382506   1.000000
   29       -5.183699   1.000000
   30       -4.883786   1.000000
   31       -4.485086   1.000000
   32       -4.251228   1.000000
   33       -4.153393   1.000000
   34       -4.121452   1.000000
   35       -3.961654   1.000000
   36       -3.930381   1.000000
   37       -3.747012   1.000000
   38       -3.151397   1.000000
   39       -2.972158   1.000000
   40       -2.814569   1.000000
   41       -2.750844   1.000000
   42       -2.623988   1.000000
   43       -2.433324   1.000000
   44       -2.326372   1.000000
   45       -2.225026   1.000000
   46       -2.157306   1.000000
   47       -2.065453   1.000000
   48       -1.946368   1.000000
   49       -1.861544   1.000000
   50       -1.771340   1.000000
   51       -1.601275   1.000000
   52       -1.593337   1.000000
   53       -1.537134   1.000000
   54       -1.504468   1.000000
   55       -1.445218   1.000000
   56       -1.394231   1.000000
   57       -1.348278   1.000000
   58       -1.275268   1.000000
   59       -1.204844   1.000000
   60       -1.171534   1.000000
   61       -1.116357   1.000000
   62       -1.070746   1.000000
   63       -1.030849   1.000000
   64       -0.897730   1.000000
   65       -0.723407   1.000000
   66       -0.703837   1.000000
   67       -0.670624   1.000000
   68       -0.509773   1.000000
   69       -0.454574   1.000000
   70       -0.429488   1.000000
   71       -0.386828   1.000000
   72       -0.350317   1.000000
   73       -0.301432   1.000000
   74       -0.211165   1.000000
   75       -0.045004   1.000000
   76        0.183970   1.000000
   77        0.231332   1.000000
   78        0.264284   1.000000
   79        0.370991   1.000000
   80        0.566164   1.000000
   81        0.780386   1.000000
   82        0.809938   1.000000
   83        0.836886   1.000000
   84        1.003713   1.000000
   85        1.448236   1.000000
   86        1.480444   1.000000
   87        1.630772   1.000000
   88        1.697505   1.000000
   89        1.744807   1.000000
   90        1.782821   1.000000
   91        1.887016   1.000000
   92        1.900875   1.000000
   93        1.977949   1.000000
   94        2.021904   1.000000
   95        2.064178   1.000000
   96        2.077227   1.000000
   97        2.496782   1.000006
   98        2.590848   1.000106
   99        2.953889   1.034782
  100        3.080442   0.885350
  101        3.165658   0.586176
  102        3.291214   0.116296
  103        3.351714   0.003165
  104        3.501034  -0.024248
  105        3.563990  -0.011245
  106        3.596153  -0.006778
  107        3.669029  -0.001683
  108        3.969296  -0.000000
  109        3.980327  -0.000000
  110        3.999461  -0.000000
  111        4.020816  -0.000000
  112        4.124556  -0.000000
  113        4.280905  -0.000000
  114        4.291920  -0.000000
  115        4.299383  -0.000000
  116        4.349177  -0.000000
  117        4.361322  -0.000000
  118        4.451177  -0.000000
  119        4.499719  -0.000000
  120        4.565031  -0.000000
  121        4.606111  -0.000000
  122        4.646764  -0.000000
  123        4.678966  -0.000000
  124        4.720162  -0.000000
  125        4.731768  -0.000000
  126        4.788385  -0.000000
  127        4.792279  -0.000000
  128        4.927279  -0.000000
  129        5.216654  -0.000000
  130        5.361650  -0.000000
  131        5.509438  -0.000000
  132        5.547969  -0.000000

  0.1111111E+00  0.3687552E-15  0.1262379E-14  0.2469136E-01
    1      -11.029474   1.000000
    2      -10.468289   1.000000
    3       -9.685581   1.000000
    4       -8.679392   1.000000
    5       -8.232874   1.000000
    6       -8.202231   1.000000
    7       -7.935134   1.000000
    8       -7.897422   1.000000
    9       -7.791752   1.000000
   10       -7.685728   1.000000
   11       -7.582626   1.000000
   12       -7.530441   1.000000
   13       -7.407301   1.000000
   14       -7.372245   1.000000
   15       -6.875807   1.000000
   16       -6.733121   1.000000
   17       -6.684688   1.000000
   18       -6.552202   1.000000
   19       -6.435271   1.000000
   20       -6.383155   1.000000
   21       -6.266727   1.000000
   22       -6.016563   1.000000
   23       -5.752339   1.000000
   24       -5.674225   1.000000
   25       -5.565959   1.000000
   26       -5.440889   1.000000
   27       -5.383540   1.000000
   28       -5.264302   1.000000
   29       -5.176880   1.000000
   30       -4.832165   1.000000
   31       -4.462124   1.000000
   32       -4.138003   1.000000
   33       -4.089116   1.000000
   34       -3.977257   1.000000
   35       -3.888298   1.000000
   36       -3.822981   1.000000
   37       -3.593427   1.000000
   38       -3.135749   1.000000
   39       -2.962878   1.000000
   40       -2.785166   1.000000
   41       -2.726320   1.000000
   42       -2.666007   1.000000
   43       -2.526463   1.000000
   44       -2.290992   1.000000
   45       -2.271347   1.000000
   46       -2.190308   1.000000
   47       -2.110936   1.000000
   48       -2.046603   1.000000
   49       -1.974424   1.000000
   50       -1.846909   1.000000
   51       -1.749380   1.000000
   52       -1.628723   1.000000
   53       -1.521610   1.000000
   54       -1.491925   1.000000
   55       -1.474341   1.000000
   56       -1.355622   1.000000
   57       -1.316655   1.000000
   58       -1.236125   1.000000
   59       -1.202070   1.000000
   60       -1.142774   1.000000
   61       -1.101827   1.000000
   62       -1.077451   1.000000
   63       -0.997819   1.000000
   64       -0.925788   1.000000
   65       -0.798413   1.000000
   66       -0.764694   1.000000
   67       -0.717757   1.000000
   68       -0.651172   1.000000
   69       -0.564521   1.000000
   70       -0.496439   1.000000
   71       -0.451115   1.000000
   72       -0.350262   1.000000
   73       -0.237656   1.000000
   74       -0.171861   1.000000
   75       -0.055888   1.000000
   76        0.096149   1.000000
   77        0.195399   1.000000
   78        0.218134   1.000000
   79        0.397226   1.000000
   80        0.463442   1.000000
   81        0.511319   1.000000
   82        0.772941   1.000000
   83        0.828237   1.000000
   84        0.982878   1.000000
   85        1.297142   1.000000
   86        1.350294   1.000000
   87        1.452854   1.000000
   88        1.564248   1.000000
   89        1.683775   1.000000
   90        1.778933   1.000000
   91        1.883478   1.000000
   92        1.899960   1.000000
   93        1.925181   1.000000
   94        1.977563   1.000000
   95        2.072490   1.000000
   96        2.182711   1.000000
   97        2.725897   1.002686
   98        2.800514   1.010014
   99        2.997096   1.018471
  100        3.044058   0.963459
  101        3.142486   0.679935
  102        3.198072   0.449620
  103        3.282101   0.141202
  104        3.367324  -0.012407
  105        3.542717  -0.015099
  106        3.745548  -0.000278
  107        3.862373  -0.000009
  108        3.955713  -0.000000
  109        3.981774  -0.000000
  110        4.008541  -0.000000
  111        4.055675  -0.000000
  112        4.111955  -0.000000
  113        4.204016  -0.000000
  114        4.246984  -0.000000
  115        4.299425  -0.000000
  116        4.323030  -0.000000
  117        4.375217  -0.000000
  118        4.396071  -0.000000
  119        4.432443  -0.000000
  120        4.472734  -0.000000
  121        4.582536  -0.000000
  122        4.590103  -0.000000
  123        4.628086  -0.000000
  124        4.696176  -0.000000
  125        4.723907  -0.000000
  126        4.760322  -0.000000
  127        4.816876  -0.000000
  128        4.923662  -0.000000
  129        5.181653  -0.000000
  130        5.250718  -0.000000
  131        5.386484  -0.000000
  132        5.490111  -0.000000

  0.2222222E+00  0.3503827E-15  0.1262379E-14  0.2469136E-01
    1      -10.858790   1.000000
    2      -10.314544   1.000000
    3       -9.570234   1.000000
    4       -8.620169   1.000000
    5       -8.524259   1.000000
    6       -8.390706   1.000000
    7       -8.290297   1.000000
    8       -8.088843   1.000000
    9       -7.898513   1.000000
   10       -7.781799   1.000000
   11       -7.735755   1.000000
   12       -7.711139   1.000000
   13       -7.608519   1.000000
   14       -7.552415   1.000000
   15       -6.907976   1.000000
   16       -6.595346   1.000000
   17       -6.573803   1.000000
   18       -6.356001   1.000000
   19       -6.299590   1.000000
   20       -6.175154   1.000000
   21       -6.061240   1.000000
   22       -5.700662   1.000000
   23       -5.599519   1.000000
   24       -5.469128   1.000000
   25       -5.452807   1.000000
   26       -5.316398   1.000000
   27       -5.222158   1.000000
   28       -5.183760   1.000000
   29       -4.842778   1.000000
   30       -4.634775   1.000000
   31       -4.374096   1.000000
   32       -3.973437   1.000000
   33       -3.944713   1.000000
   34       -3.775751   1.000000
   35       -3.645339   1.000000
   36       -3.450828   1.000000
   37       -3.214583   1.000000
   38       -3.106916   1.000000
   39       -2.972300   1.000000
   40       -2.887386   1.000000
   41       -2.816532   1.000000
   42       -2.710602   1.000000
   43       -2.674725   1.000000
   44       -2.630813   1.000000
   45       -2.485748   1.000000
   46       -2.217634   1.000000
   47       -2.191765   1.000000
   48       -2.108739   1.000000
   49       -1.980917   1.000000
   50       -1.809840   1.000000
   51       -1.764762   1.000000
   52       -1.717675   1.000000
   53       -1.566421   1.000000
   54       -1.539944   1.000000
   55       -1.479236   1.000000
   56       -1.456282   1.000000
   57       -1.407729   1.000000
   58       -1.292192   1.000000
   59       -1.236886   1.000000
   60       -1.188985   1.000000
   61       -1.119557   1.000000
   62       -1.086240   1.000000
   63       -1.072613   1.000000
   64       -1.042736   1.000000
   65       -0.954381   1.000000
   66       -0.910936   1.000000
   67       -0.808012   1.000000
   68       -0.760606   1.000000
   69       -0.723326   1.000000
   70       -0.657802   1.000000
   71       -0.564326   1.000000
   72       -0.414783   1.000000
   73       -0.340333   1.000000
   74       -0.235788   1.000000
   75       -0.160168   1.000000
   76       -0.138854   1.000000
   77        0.062507   1.000000
   78        0.240301   1.000000
   79        0.321082   1.000000
   80        0.382212   1.000000
   81        0.514658   1.000000
   82        0.640857   1.000000
   83        0.768303   1.000000
   84        0.928661   1.000000
   85        0.982746   1.000000
   86        1.160196   1.000000
   87        1.301595   1.000000
   88        1.387808   1.000000
   89        1.588313   1.000000
   90        1.691565   1.000000
   91        1.734358   1.000000
   92        1.853009   1.000000
   93        1.864484   1.000000
   94        1.882760   1.000000
   95        2.170968   1.000000
   96        2.249929   1.000000
   97        2.614538   1.000202
   98        2.710632   1.001966
   99        2.799442   1.009852
  100        3.099393   0.831571
  101        3.149934   0.650464
  102        3.362452  -0.008070
  103        3.462496  -0.032418
  104        3.523142  -0.019206
  105        3.650416  -0.002477
  106        3.727131  -0.000442
  107        3.791931  -0.000079
  108        3.842183  -0.000018
  109        3.860269  -0.000010
  110        3.902022  -0.000003
  111        3.983160  -0.000000
  112        4.035265  -0.000000
  113        4.101406  -0.000000
  114        4.144702  -0.000000
  115        4.188940  -0.000000
  116        4.206407  -0.000000
  117        4.293947  -0.000000
  118        4.307963  -0.000000
  119        4.393784  -0.000000
  120        4.456632  -0.000000
  121        4.500281  -0.000000
  122        4.554302  -0.000000
  123        4.627536  -0.000000
  124        4.693727  -0.000000
  125        4.728476  -0.000000
  126        4.835922  -0.000000
  127        4.888363  -0.000000
  128        4.935810  -0.000000
  129        5.004976  -0.000000
  130        5.163434  -0.000000
  131        5.202901  -0.000000
  132        5.382774  -0.000000

  0.3333333E+00  0.3767071E-15  0.1262379E-14  0.2469136E-01
    1      -10.582230   1.000000
    2      -10.067517   1.000000
    3       -9.393235   1.000000
    4       -9.152711   1.000000
    5       -8.835122   1.000000
    6       -8.559311   1.000000
    7       -8.467609   1.000000
    8       -8.004026   1.000000
    9       -7.939138   1.000000
   10       -7.901169   1.000000
   11       -7.832942   1.000000
   12       -7.760049   1.000000
   13       -7.713390   1.000000
   14       -7.640349   1.000000
   15       -7.080859   1.000000
   16       -6.935191   1.000000
   17       -6.741194   1.000000
   18       -6.145912   1.000000
   19       -6.049451   1.000000
   20       -5.842663   1.000000
   21       -5.683016   1.000000
   22       -5.550657   1.000000
   23       -5.456408   1.000000
   24       -5.445911   1.000000
   25       -5.266223   1.000000
   26       -5.211148   1.000000
   27       -4.705557   1.000000
   28       -4.613440   1.000000
   29       -4.352637   1.000000
   30       -4.259010   1.000000
   31       -4.182410   1.000000
   32       -3.777319   1.000000
   33       -3.683638   1.000000
   34       -3.565667   1.000000
   35       -3.419811   1.000000
   36       -3.351617   1.000000
   37       -3.256073   1.000000
   38       -3.203253   1.000000
   39       -3.146992   1.000000
   40       -3.118813   1.000000
   41       -3.061187   1.000000
   42       -2.937242   1.000000
   43       -2.768704   1.000000
   44       -2.468132   1.000000
   45       -2.399157   1.000000
   46       -2.343798   1.000000
   47       -2.138700   1.000000
   48       -2.066840   1.000000
   49       -2.005587   1.000000
   50       -1.942731   1.000000
   51       -1.852053   1.000000
   52       -1.787405   1.000000
   53       -1.766139   1.000000
   54       -1.698118   1.000000
   55       -1.667379   1.000000
   56       -1.553241   1.000000
   57       -1.456343   1.000000
   58       -1.434894   1.000000
   59       -1.356221   1.000000
   60       -1.327805   1.000000
   61       -1.270510   1.000000
   62       -1.225446   1.000000
   63       -1.167024   1.000000
   64       -1.135009   1.000000
   65       -1.078556   1.000000
   66       -0.995529   1.000000
   67       -0.939601   1.000000
   68       -0.850154   1.000000
   69       -0.771947   1.000000
   70       -0.721070   1.000000
   71       -0.635210   1.000000
   72       -0.535593   1.000000
   73       -0.437699   1.000000
   74       -0.378182   1.000000
   75       -0.220478   1.000000
   76       -0.149495   1.000000
   77       -0.125185   1.000000
   78        0.032595   1.000000
   79        0.168755   1.000000
   80        0.393659   1.000000
   81        0.489096   1.000000
   82        0.710256   1.000000
   83        0.730042   1.000000
   84        0.858438   1.000000
   85        0.950571   1.000000
   86        1.111724   1.000000
   87        1.270104   1.000000
   88        1.343223   1.000000
   89        1.472199   1.000000
   90        1.545053   1.000000
   91        1.633058   1.000000
   92        1.731913   1.000000
   93        1.793739   1.000000
   94        1.840929   1.000000
   95        2.060059   1.000000
   96        2.388841   1.000000
   97        2.466525   1.000002
   98        2.519819   1.000013
   99        2.589509   1.000103
  100        2.972080   1.030970
  101        3.112062   0.790894
  102        3.215665   0.376576
  103        3.285496   0.131684
  104        3.399789  -0.030836
  105        3.445078  -0.034774
  106        3.567264  -0.010715
  107        3.617596  -0.004656
  108        3.711882  -0.000639
  109        3.782661  -0.000103
  110        3.846896  -0.000015
  111        3.882644  -0.000005
  112        3.930310  -0.000001
  113        3.975086  -0.000000
  114        4.072241  -0.000000
  115        4.123131  -0.000000
  116        4.198165  -0.000000
  117        4.264245  -0.000000
  118        4.299885  -0.000000
  119        4.366737  -0.000000
  120        4.426509  -0.000000
  121        4.464179  -0.000000
  122        4.567917  -0.000000
  123        4.688885  -0.000000
  124        4.717897  -0.000000
  125        4.812354  -0.000000
  126        4.861924  -0.000000
  127        4.929340  -0.000000
  128        4.987960  -0.000000
  129        5.065751  -0.000000
  130        5.128223  -0.000000
  131        5.238991  -0.000000
  132        5.331665  -0.000000

  0.4444444E+00  0.3698634E-15  0.1262379E-14  0.2469136E-01
    1      -10.223211   1.000000
    2       -9.763898   1.000000
    3       -9.660507   1.000000
    4       -9.322853   1.000000
    5       -9.127394   1.000000
    6       -8.820193   1.000000
    7       -8.376525   1.000000
    8       -8.051051   1.000000
    9       -8.001895   1.000000
   10       -7.913607   1.000000
   11       -7.792467   1.000000
   12       -7.766380   1.000000
   13       -7.675269   1.000000
   14       -7.624688   1.000000
   15       -7.306401   1.000000
   16       -7.248495   1.000000
   17       -6.802604   1.000000
   18       -6.052564   1.000000
   19       -5.944751   1.000000
   20       -5.668146   1.000000
   21       -5.553213   1.000000
   22       -5.349739   1.000000
   23       -5.335428   1.000000
   24       -5.223646   1.000000
   25       -5.168803   1.000000
   26       -5.110892   1.000000
   27       -4.173198   1.000000
   28       -4.108350   1.000000
   29       -3.965333   1.000000
   30       -3.862172   1.000000
   31       -3.815922   1.000000
   32       -3.754425   1.000000
   33       -3.679144   1.000000
   34       -3.606680   1.000000
   35       -3.503555   1.000000
   36       -3.410475   1.000000
   37       -3.376745   1.000000
   38       -3.302543   1.000000
   39       -3.228260   1.000000
   40       -3.146186   1.000000
   41       -3.103460   1.000000
   42       -3.032455   1.000000
   43       -2.940849   1.000000
   44       -2.837386   1.000000
   45       -2.459258   1.000000
   46       -2.369826   1.000000
   47       -2.198134   1.000000
   48       -2.149272   1.000000
   49       -2.073080   1.000000
   50       -1.935954   1.000000
   51       -1.906472   1.000000
   52       -1.794146   1.000000
   53       -1.756379   1.000000
   54       -1.717602   1.000000
   55       -1.669138   1.000000
   56       -1.601897   1.000000
   57       -1.551144   1.000000
   58       -1.458801   1.000000
   59       -1.444710   1.000000
   60       -1.394879   1.000000
   61       -1.361778   1.000000
   62       -1.303460   1.000000
   63       -1.294940   1.000000
   64       -1.238511   1.000000
   65       -1.202045   1.000000
   66       -1.043142   1.000000
   67       -0.964895   1.000000
   68       -0.912127   1.000000
   69       -0.823106   1.000000
   70       -0.795077   1.000000
   71       -0.651946   1.000000
   72       -0.557805   1.000000
   73       -0.488393   1.000000
   74       -0.450672   1.000000
   75       -0.280432   1.000000
   76       -0.202473   1.000000
   77       -0.181729   1.000000
   78       -0.117695   1.000000
   79        0.070554   1.000000
   80        0.404557   1.000000
   81        0.556060   1.000000
   82        0.605035   1.000000
   83        0.689225   1.000000
   84        0.906624   1.000000
   85        1.035159   1.000000
   86        1.109990   1.000000
   87        1.293562   1.000000
   88        1.317450   1.000000
   89        1.386433   1.000000
   90        1.495713   1.000000
   91        1.591153   1.000000
   92        1.698606   1.000000
   93        1.792050   1.000000
   94        1.819190   1.000000
   95        2.146343   1.000000
   96        2.333251   1.000000
   97        2.425374   1.000001
   98        2.504204   1.000008
   99        2.597976   1.000130
  100        2.666003   1.000730
  101        2.728879   1.002851
  102        2.957599   1.034301
  103        3.098639   0.833878
  104        3.214312   0.382106
  105        3.348087   0.007507
  106        3.415239  -0.034382
  107        3.550886  -0.013536
  108        3.613757  -0.004990
  109        3.646261  -0.002693
  110        3.753863  -0.000224
  111        3.808523  -0.000049
  112        3.832539  -0.000024
  113        3.850462  -0.000014
  114        3.972509  -0.000000
  115        4.033667  -0.000000
  116        4.120071  -0.000000
  117        4.192550  -0.000000
  118        4.265960  -0.000000
  119        4.330946  -0.000000
  120        4.433878  -0.000000
  121        4.534911  -0.000000
  122        4.692406  -0.000000
  123        4.742311  -0.000000
  124        4.815779  -0.000000
  125        4.880691  -0.000000
  126        4.945739  -0.000000
  127        5.048080  -0.000000
  128        5.134365  -0.000000
  129        5.196407  -0.000000
  130        5.222179  -0.000000
  131        5.370826  -0.000000
  132        5.473580  -0.000000

  0.3742002E-15  0.1111111E+00  0.1262379E-14  0.2469136E-01
    1      -11.029475   1.000000
    2      -10.468271   1.000000
    3       -9.685375   1.000000
    4       -8.673065   1.000000
    5       -8.232835   1.000000
    6       -8.202030   1.000000
    7       -7.934604   1.000000
    8       -7.897090   1.000000
    9       -7.791848   1.000000
   10       -7.683850   1.000000
   11       -7.583512   1.000000
   12       -7.531401   1.000000
   13       -7.405848   1.000000
   14       -7.373573   1.000000
   15       -6.933329   1.000000
   16       -6.736487   1.000000
   17       -6.708364   1.000000
   18       -6.549014   1.000000
   19       -6.458159   1.000000
   20       -6.363779   1.000000
   21       -6.170986   1.000000
   22       -5.968152   1.000000
   23       -5.773855   1.000000
   24       -5.703816   1.000000
   25       -5.563162   1.000000
   26       -5.441899   1.000000
   27       -5.393670   1.000000
   28       -5.270267   1.000000
   29       -5.158443   1.000000
   30       -4.830121   1.000000
   31       -4.501649   1.000000
   32       -4.144544   1.000000
   33       -4.089695   1.000000
   34       -3.968458   1.000000
   35       -3.914924   1.000000
   36       -3.762519   1.000000
   37       -3.606280   1.000000
   38       -3.135232   1.000000
   39       -2.961796   1.000000
   40       -2.792833   1.000000
   41       -2.717042   1.000000
   42       -2.667887   1.000000
   43       -2.530465   1.000000
   44       -2.291825   1.000000
   45       -2.270816   1.000000
   46       -2.186103   1.000000
   47       -2.120576   1.000000
   48       -2.038861   1.000000
   49       -1.967092   1.000000
   50       -1.841841   1.000000
   51       -1.780199   1.000000
   52       -1.615537   1.000000
   53       -1.519942   1.000000
   54       -1.487277   1.000000
   55       -1.476513   1.000000
   56       -1.347467   1.000000
   57       -1.313675   1.000000
   58       -1.258309   1.000000
   59       -1.189130   1.000000
   60       -1.143177   1.000000
   61       -1.092955   1.000000
   62       -1.078923   1.000000
   63       -1.000872   1.000000
   64       -0.926706   1.000000
   65       -0.780810   1.000000
   66       -0.764975   1.000000
   67       -0.711532   1.000000
   68       -0.658025   1.000000
   69       -0.568163   1.000000
   70       -0.516199   1.000000
   71       -0.410816   1.000000
   72       -0.366504   1.000000
   73       -0.240270   1.000000
   74       -0.175547   1.000000
   75       -0.051187   1.000000
   76        0.064281   1.000000
   77        0.146634   1.000000
   78        0.241382   1.000000
   79        0.382133   1.000000
   80        0.469371   1.000000
   81        0.548448   1.000000
   82        0.727891   1.000000
   83        0.853485   1.000000
   84        0.981499   1.000000
   85        1.297050   1.000000
   86        1.347226   1.000000
   87        1.455577   1.000000
   88        1.581307   1.000000
   89        1.719746   1.000000
   90        1.773274   1.000000
   91        1.872559   1.000000
   92        1.897597   1.000000
   93        1.926195   1.000000
   94        1.977324   1.000000
   95        2.088572   1.000000
   96        2.181440   1.000000
   97        2.663331   1.000685
   98        2.817205   1.012774
   99        2.982338   1.026991
  100        3.052764   0.947780
  101        3.167429   0.578801
  102        3.224405   0.341340
  103        3.256757   0.220850
  104        3.348732   0.006714
  105        3.548881  -0.013911
  106        3.780535  -0.000109
  107        3.858110  -0.000011
  108        3.962351  -0.000000
  109        3.973000  -0.000000
  110        4.009355  -0.000000
  111        4.056790  -0.000000
  112        4.118465  -0.000000
  113        4.194758  -0.000000
  114        4.269221  -0.000000
  115        4.292959  -0.000000
  116        4.316783  -0.000000
  117        4.373196  -0.000000
  118        4.393982  -0.000000
  119        4.431787  -0.000000
  120        4.463480  -0.000000
  121        4.579995  -0.000000
  122        4.604711  -0.000000
  123        4.607276  -0.000000
  124        4.696852  -0.000000
  125        4.722436  -0.000000
  126        4.759276  -0.000000
  127        4.806601  -0.000000
  128        4.936756  -0.000000
  129        5.156367  -0.000000
  130        5.304729  -0.000000
  131        5.393627  -0.000000
  132        5.456255  -0.000000

  0.1111111E+00  0.1111111E+00  0.1262379E-14  0.2469136E-01
    1      -10.915049   1.000000
    2      -10.365305   1.000000
    3       -9.608039   1.000000
    4       -8.619672   1.000000
    5       -8.296180   1.000000
    6       -8.281658   1.000000
    7       -8.164024   1.000000
    8       -8.154404   1.000000
    9       -7.991252   1.000000
   10       -7.914805   1.000000
   11       -7.854751   1.000000
   12       -7.691577   1.000000
   13       -7.407044   1.000000
   14       -7.054519   1.000000
   15       -6.975020   1.000000
   16       -6.873616   1.000000
   17       -6.507068   1.000000
   18       -6.468722   1.000000
   19       -6.348118   1.000000
   20       -6.319981   1.000000
   21       -5.894803   1.000000
   22       -5.790776   1.000000
   23       -5.682422   1.000000
   24       -5.578149   1.000000
   25       -5.447912   1.000000
   26       -5.324675   1.000000
   27       -5.231300   1.000000
   28       -5.110408   1.000000
   29       -5.025505   1.000000
   30       -4.726982   1.000000
   31       -4.620139   1.000000
   32       -4.238837   1.000000
   33       -3.836477   1.000000
   34       -3.700216   1.000000
   35       -3.666261   1.000000
   36       -3.536048   1.000000
   37       -3.375784   1.000000
   38       -3.139421   1.000000
   39       -2.992177   1.000000
   40       -2.862946   1.000000
   41       -2.765734   1.000000
   42       -2.689702   1.000000
   43       -2.644665   1.000000
   44       -2.499702   1.000000
   45       -2.307070   1.000000
   46       -2.206429   1.000000
   47       -2.149495   1.000000
   48       -2.065563   1.000000
   49       -1.945075   1.000000
   50       -1.897961   1.000000
   51       -1.805280   1.000000
   52       -1.723802   1.000000
   53       -1.637539   1.000000
   54       -1.538790   1.000000
   55       -1.504282   1.000000
   56       -1.397454   1.000000
   57       -1.281615   1.000000
   58       -1.273363   1.000000
   59       -1.218997   1.000000
   60       -1.181062   1.000000
   61       -1.112965   1.000000
   62       -1.053881   1.000000
   63       -0.990229   1.000000
   64       -0.935446   1.000000
   65       -0.917752   1.000000
   66       -0.898315   1.000000
   67       -0.808141   1.000000
   68       -0.742978   1.000000
   69       -0.672579   1.000000
   70       -0.595818   1.000000
   71       -0.494808   1.000000
   72       -0.384519   1.000000
   73       -0.311979   1.000000
   74       -0.236373   1.000000
   75       -0.177535   1.000000
   76       -0.098338   1.000000
   77        0.008130   1.000000
   78        0.228287   1.000000
   79        0.400058   1.000000
   80        0.428925   1.000000
   81        0.532531   1.000000
   82        0.682170   1.000000
   83        0.742916   1.000000
   84        0.866144   1.000000
   85        0.927966   1.000000
   86        1.271391   1.000000
   87        1.332412   1.000000
   88        1.533218   1.000000
   89        1.697516   1.000000
   90        1.741992   1.000000
   91        1.803884   1.000000
   92        1.811694   1.000000
   93        1.864651   1.000000
   94        1.931793   1.000000
   95        2.011320   1.000000
   96        2.350335   1.000000
   97        2.603540   1.000151
   98        2.806209   1.010905