   74   74   85    1
  0.2110353E+02  0.1053953E-08  0.6141200E-09  0.2412750E-08  0.5000000E-15
   1.0000000000000000E-004
  CAR 
 Name                                    
    284     23    184

  0.3742002E-15  0.3742002E-15  0.1262379E-14  0.2222222E-01
    1      -13.946634   1.000000
    2      -12.811174   1.000000
    3      -12.765284   1.000000
    4      -12.737138   1.000000
    5      -11.773285   1.000000
    6      -11.721442   1.000000
    7      -11.617221   1.000000
    8      -11.559215   1.000000
    9      -11.379127   1.000000
   10      -11.346905   1.000000
   11      -11.203433   1.000000
   12      -11.056888   1.000000
   13      -11.019885   1.000000
   14      -10.699640   1.000000
   15      -10.620973   1.000000
   16      -10.487634   1.000000
   17      -10.163319   1.000000
   18      -10.145330   1.000000
   19      -10.029491   1.000000
   20       -9.948374   1.000000
   21       -9.740893   1.000000
   22       -9.629464   1.000000
   23       -9.491031   1.000000
   24       -9.352146   1.000000
   25       -8.996183   1.000000
   26       -8.970431   1.000000
   27       -8.872636   1.000000
   28       -8.522355   1.000000
   29       -8.433611   1.000000
   30       -8.378776   1.000000
   31       -8.172696   1.000000
   32       -7.845501   1.000000
   33       -7.823752   1.000000
   34       -7.724940   1.000000
   35       -7.354677   1.000000
   36       -7.249168   1.000000
   37       -7.165122   1.000000
   38       -7.073297   1.000000
   39       -6.923883   1.000000
   40       -6.761258   1.000000
   41       -6.741202   1.000000
   42       -6.632954   1.000000
   43       -6.611582   1.000000
   44       -6.523587   1.000000
   45       -6.478925   1.000000
   46       -6.460739   1.000000
   47       -6.397913   1.000000
   48       -6.234428   1.000000
   49       -6.213004   1.000000
   50       -6.086862   1.000000
   51       -6.057112   1.000000
   52       -5.856760   1.000000
   53       -5.843735   1.000000
   54       -5.800129   1.000000
   55       -5.725665   1.000000
   56       -5.598523   1.000000
   57       -5.565617   1.000000
   58       -5.467862   1.000000
   59       -5.366691   1.000000
   60       -5.327315   1.000000
   61       -5.269225   1.000000
   62       -5.200441   1.000000
   63       -4.982185   1.000000
   64       -4.871690   1.000000
   65       -4.727395   1.000000
   66       -4.712974   1.000000
   67       -4.682796   1.000000
   68       -4.606847   1.000000
   69       -4.591267   1.000000
   70       -4.584711   1.000000
   71       -4.444142   1.000000
   72       -4.377463   1.000000
   73       -4.267151   1.000000
   74       -4.216728   1.000000
   75       -4.142883   1.000000
   76       -4.077554   1.000000
   77       -3.990793   1.000000
   78       -3.953675   1.000000
   79       -3.949025   1.000000
   80       -3.930012   1.000000
   81       -3.924139   1.000000
   82       -3.900379   1.000000
   83       -3.873720   1.000000
   84       -3.836876   1.000000
   85       -3.791519   1.000000
   86       -3.703405   1.000000
   87       -3.647490   1.000000
   88       -3.605199   1.000000
   89       -3.573660   1.000000
   90       -3.561445   1.000000
   91       -3.382903   1.000000
   92       -3.210161   1.000000
   93       -3.086450   1.000000
   94       -3.061561   1.000000
   95       -3.059364   1.000000
   96       -3.023429   1.000000
   97       -2.894890   1.000000
   98       -2.842374   1.000000
   99       -2.754288   1.000000
  100       -2.720764   1.000000
  101       -2.707683   1.000000
  102       -2.616811   1.000000
  103       -2.434548   1.000000
  104       -2.404482   1.000000
  105       -2.404229   1.000000
  106       -2.377898   1.000000
  107       -2.277928   1.000000
  108       -2.146554   1.000000
  109       -2.142076   1.000000
  110       -2.093028   1.000000
  111       -2.084844   1.000000
  112       -2.026181   1.000000
  113       -2.006924   1.000000
  114       -1.903382   1.000000
  115       -1.879842   1.000000
  116       -1.716424   1.000000
  117       -1.650545   1.000000
  118       -1.621995   1.000000
  119       -1.602154   1.000000
  120       -1.464058   1.000000
  121       -1.248538   1.000000
  122       -1.246980   1.000000
  123       -0.996757   1.000000
  124       -0.903563   1.000000
  125       -0.874168   1.000000
  126       -0.839011   1.000000
  127       -0.729378   1.000000
  128       -0.462002   1.000000
  129       -0.402517   1.000000
  130       -0.379912   1.000000
  131       -0.199357   1.000000
  132       -0.178072   1.000000
  133       -0.128855   1.000000
  134       -0.039610   1.000000
  135        0.186611   1.000209
  136        0.224793   1.001326
  137        0.296736   1.016423
  138        0.307292   1.021023
  139        0.313825   1.024030
  140        0.319994   1.026866
  141        0.345191   1.035216
  142        0.406247   0.943149
  143        0.521806   0.129550
  144        0.550857   0.012250
  145        0.592064  -0.035384
  146        0.609016  -0.032721
  147        0.658892  -0.011838
  148        0.667780  -0.009067
  149        0.767789  -0.000116
  150        0.818077  -0.000006
  151        1.010505  -0.000000
  152        1.103786  -0.000000
  153        1.104860  -0.000000
  154        1.181502  -0.000000
  155        1.190057  -0.000000
  156        1.249118  -0.000000
  157        1.289547  -0.000000
  158        1.309939  -0.000000
  159        1.342179  -0.000000
  160        1.342468  -0.000000
  161        1.426695  -0.000000
  162        1.440153  -0.000000
  163        1.484461  -0.000000
  164        1.568362  -0.000000
  165        1.572275  -0.000000
  166        1.681594  -0.000000
  167        1.703487  -0.000000
  168        1.708372  -0.000000
  169        1.730280  -0.000000
  170        1.757867  -0.000000
  171        1.776717  -0.000000
  172        1.790343  -0.000000
  173        1.824677  -0.000000
  174        1.837028  -0.000000
  175        1.899756  -0.000000
  176        1.950792  -0.000000
  177        2.015852  -0.000000
  178        2.041767  -0.000000
  179        2.052463  -0.000000
  180        2.097072  -0.000000
  181        2.158105  -0.000000
  182        2.226078  -0.000000
  183        2.249687  -0.000000
  184        2.302158  -0.000000

  0.2000000E+00  0.3742002E-15  0.1262379E-14  0.4444444E-01
    1      -13.898183   1.000000
    2      -13.193232   1.000000
    3      -12.692673   1.000000
    4      -12.313403   1.000000
    5      -12.041303   1.000000
    6      -11.763090   1.000000
    7      -11.610954   1.000000
    8      -11.325461   1.000000
    9      -11.316977   1.000000
   10      -11.243847   1.000000
   11      -11.187362   1.000000
   12      -11.101080   1.000000
   13      -10.933946   1.000000
   14      -10.765274   1.000000
   15      -10.701875   1.000000
   16      -10.588076   1.000000
   17      -10.524016   1.000000
   18      -10.195500   1.000000
   19      -10.117737   1.000000
   20       -9.710696   1.000000
   21       -9.680068   1.000000
   22       -9.494061   1.000000
   23       -9.448148   1.000000
   24       -9.363073   1.000000
   25       -9.175594   1.000000
   26       -9.052901   1.000000
   27       -8.662830   1.000000
   28       -8.376029   1.000000
   29       -8.367163   1.000000
   30       -8.247911   1.000000
   31       -8.120807   1.000000
   32       -8.106990   1.000000
   33       -7.713278   1.000000
   34       -7.707650   1.000000
   35       -7.492260   1.000000
   36       -7.264883   1.000000
   37       -7.208223   1.000000
   38       -7.161504   1.000000
   39       -7.121376   1.000000
   40       -6.849541   1.000000
   41       -6.701940   1.000000
   42       -6.691468   1.000000
   43       -6.662837   1.000000
   44       -6.603786   1.000000
   45       -6.493321   1.000000
   46       -6.426699   1.000000
   47       -6.206137   1.000000
   48       -6.177034   1.000000
   49       -6.130992   1.000000
   50       -6.053128   1.000000
   51       -6.009053   1.000000
   52       -5.981114   1.000000
   53       -5.781692   1.000000
   54       -5.633553   1.000000
   55       -5.599303   1.000000
   56       -5.597560   1.000000
   57       -5.477477   1.000000
   58       -5.461610   1.000000
   59       -5.377483   1.000000
   60       -5.367018   1.000000
   61       -5.300954   1.000000
   62       -5.191744   1.000000
   63       -5.082349   1.000000
   64       -4.860111   1.000000
   65       -4.809215   1.000000
   66       -4.700522   1.000000
   67       -4.681402   1.000000
   68       -4.669856   1.000000
   69       -4.621308   1.000000
   70       -4.590996   1.000000
   71       -4.345480   1.000000
   72       -4.335567   1.000000
   73       -4.240870   1.000000
   74       -4.192871   1.000000
   75       -4.137833   1.000000
   76       -4.129010   1.000000
   77       -4.052613   1.000000
   78       -4.006220   1.000000
   79       -3.963576   1.000000
   80       -3.939750   1.000000
   81       -3.936964   1.000000
   82       -3.899735   1.000000
   83       -3.864756   1.000000
   84       -3.824837   1.000000
   85       -3.751440   1.000000
   86       -3.637735   1.000000
   87       -3.607085   1.000000
   88       -3.577089   1.000000
   89       -3.573969   1.000000
   90       -3.521905   1.000000
   91       -3.451590   1.000000
   92       -3.194943   1.000000
   93       -3.153756   1.000000
   94       -3.139283   1.000000
   95       -3.120638   1.000000
   96       -3.041763   1.000000
   97       -3.035877   1.000000
   98       -2.834043   1.000000
   99       -2.818293   1.000000
  100       -2.746032   1.000000
  101       -2.700790   1.000000
  102       -2.606581   1.000000
  103       -2.471734   1.000000
  104       -2.365529   1.000000
  105       -2.276740   1.000000
  106       -2.258679   1.000000
  107       -2.204155   1.000000
  108       -2.197084   1.000000
  109       -2.137190   1.000000
  110       -2.084922   1.000000
  111       -2.042083   1.000000
  112       -1.964976   1.000000
  113       -1.924671   1.000000
  114       -1.854891   1.000000
  115       -1.761179   1.000000
  116       -1.735243   1.000000
  117       -1.712612   1.000000
  118       -1.625866   1.000000
  119       -1.479052   1.000000
  120       -1.387259   1.000000
  121       -1.274371   1.000000
  122       -1.234373   1.000000
  123       -1.100917   1.000000
  124       -0.964937   1.000000
  125       -0.915119   1.000000
  126       -0.853867   1.000000
  127       -0.798291   1.000000
  128       -0.548344   1.000000
  129       -0.484636   1.000000
  130       -0.468869   1.000000
  131       -0.406129   1.000000
  132       -0.257393   1.000000
  133       -0.186790   1.000000
  134       -0.105691   1.000000
  135        0.048607   1.000000
  136        0.147394   1.000022
  137        0.258516   1.005095
  138        0.293368   1.015065
  139        0.366820   1.029509
  140        0.375199   1.021158
  141        0.414974   0.904979
  142        0.518904   0.145879
  143        0.602445  -0.034527
  144        0.666992  -0.009292
  145        0.673158  -0.007635
  146        0.675685  -0.007024
  147        0.677051  -0.006709
  148        0.701699  -0.002704
  149        0.707125  -0.002170
  150        0.769540  -0.000106
  151        1.045787  -0.000000
  152        1.117528  -0.000000
  153        1.189300  -0.000000
  154        1.203414  -0.000000
  155        1.231382  -0.000000
  156        1.273599  -0.000000
  157        1.290680  -0.000000
  158        1.301178  -0.000000
  159        1.343835  -0.000000
  160        1.409455  -0.000000
  161        1.481356  -0.000000
  162        1.492473  -0.000000
  163        1.539236  -0.000000
  164        1.583037  -0.000000
  165        1.625886  -0.000000
  166        1.637035  -0.000000
  167        1.672096  -0.000000
  168        1.719074  -0.000000
  169        1.737997  -0.000000
  170        1.753879  -0.000000
  171        1.802313  -0.000000
  172        1.849552  -0.000000
  173        1.872490  -0.000000
  174        1.906573  -0.000000
  175        1.911893  -0.000000
  176        1.973847  -0.000000
  177        1.982327  -0.000000
  178        2.007477  -0.000000
  179        2.053115  -0.000000
  180        2.057172  -0.000000
  181        2.189688  -0.000000
  182        2.207669  -0.000000
  183        2.212183  -0.000000
  184        2.265473  -0.000000

  0.4000000E+00  0.3742002E-15  0.1262379E-14  0.4444444E-01
    1      -13.753939   1.000000
    2      -13.517158   1.000000
    3      -12.560181   1.000000
    4      -12.342812   1.000000
    5      -11.774176   1.000000
    6      -11.732183   1.000000
    7      -11.679825   1.000000
    8      -11.289037   1.000000
    9      -11.254506   1.000000
   10      -11.193264   1.000000
   11      -11.105615   1.000000
   12      -11.074176   1.000000
   13      -11.008300   1.000000
   14      -10.914284   1.000000
   15      -10.800262   1.000000
   16      -10.652074   1.000000
   17      -10.633017   1.000000
   18      -10.278662   1.000000
   19      -10.157676   1.000000
   20       -9.944939   1.000000
   21       -9.576385   1.000000
   22       -9.518520   1.000000
   23       -9.297460   1.000000
   24       -9.285531   1.000000
   25       -9.187964   1.000000
   26       -8.930594   1.000000
   27       -8.510142   1.000000
   28       -8.388697   1.000000
   29       -8.274032   1.000000
   30       -8.163086   1.000000
   31       -7.914127   1.000000
   32       -7.880833   1.000000
   33       -7.872442   1.000000
   34       -7.731389   1.000000
   35       -7.628668   1.000000
   36       -7.602025   1.000000
   37       -7.391466   1.000000
   38       -7.387851   1.000000
   39       -7.157190   1.000000
   40       -6.995850   1.000000
   41       -6.774685   1.000000
   42       -6.569008   1.000000
   43       -6.559857   1.000000
   44       -6.549693   1.000000
   45       -6.467945   1.000000
   46       -6.430107   1.000000
   47       -6.331561   1.000000
   48       -6.089935   1.000000
   49       -6.034233   1.000000
   50       -5.973425   1.000000
   51       -5.873197   1.000000
   52       -5.869208   1.000000
   53       -5.747928   1.000000
   54       -5.740087   1.000000
   55       -5.690681   1.000000
   56       -5.598970   1.000000
   57       -5.485695   1.000000
   58       -5.357744   1.000000
   59       -5.341639   1.000000
   60       -5.339756   1.000000
   61       -5.153912   1.000000
   62       -5.092076   1.000000
   63       -4.971480   1.000000
   64       -4.912961   1.000000
   65       -4.879517   1.000000
   66       -4.813347   1.000000
   67       -4.766459   1.000000
   68       -4.698817   1.000000
   69       -4.622550   1.000000
   70       -4.490596   1.000000
   71       -4.407818   1.000000
   72       -4.340672   1.000000
   73       -4.281475   1.000000
   74       -4.185467   1.000000
   75       -4.150857   1.000000
   76       -4.135243   1.000000
   77       -4.107910   1.000000
   78       -4.066486   1.000000
   79       -3.969660   1.000000
   80       -3.951104   1.000000
   81       -3.931009   1.000000
   82       -3.870612   1.000000
   83       -3.813878   1.000000
   84       -3.760631   1.000000
   85       -3.732861   1.000000
   86       -3.641228   1.000000
   87       -3.634833   1.000000
   88       -3.594773   1.000000
   89       -3.448251   1.000000
   90       -3.434233   1.000000
   91       -3.344773   1.000000
   92       -3.321387   1.000000
   93       -3.307961   1.000000
   94       -3.281616   1.000000
   95       -3.203130   1.000000
   96       -3.153479   1.000000
   97       -2.977081   1.000000
   98       -2.974851   1.000000
   99       -2.843760   1.000000
  100       -2.842508   1.000000
  101       -2.738557   1.000000
  102       -2.536934   1.000000
  103       -2.448510   1.000000
  104       -2.384385   1.000000
  105       -2.279602   1.000000
  106       -2.259989   1.000000
  107       -2.075936   1.000000
  108       -2.061418   1.000000
  109       -1.989000   1.000000
  110       -1.965226   1.000000
  111       -1.889517   1.000000
  112       -1.867690   1.000000
  113       -1.840660   1.000000
  114       -1.792536   1.000000
  115       -1.777171   1.000000
  116       -1.750777   1.000000
  117       -1.634909   1.000000
  118       -1.429452   1.000000
  119       -1.362535   1.000000
  120       -1.347550   1.000000
  121       -1.333443   1.000000
  122       -1.212342   1.000000
  123       -1.189847   1.000000
  124       -1.099547   1.000000
  125       -1.013106   1.000000
  126       -0.890471   1.000000
  127       -0.867863   1.000000
  128       -0.859498   1.000000
  129       -0.844150   1.000000
  130       -0.643056   1.000000
  131       -0.470292   1.000000
  132       -0.439039   1.000000
  133       -0.204295   1.000000
  134       -0.162759   1.000000
  135        0.011537   1.000000
  136        0.246188   1.003216
  137        0.250723   1.003826
  138        0.257765   1.004960
  139        0.296031   1.016133
  140        0.323137   1.028269
  141        0.416624   0.896902
  142        0.519740   0.141091
  143        0.585267  -0.034068
  144        0.692154  -0.003915
  145        0.693112  -0.003776
  146        0.723047  -0.001092
  147        0.732589  -0.000704
  148        0.809298  -0.000010
  149        0.911658  -0.000000
  150        0.957328  -0.000000
  151        1.001851  -0.000000
  152        1.084616  -0.000000
  153        1.130095  -0.000000
  154        1.232171  -0.000000
  155        1.320910  -0.000000
  156        1.359001  -0.000000
  157        1.385208  -0.000000
  158        1.475219  -0.000000
  159        1.486731  -0.000000
  160        1.490525  -0.000000
  161        1.535804  -0.000000
  162        1.551559  -0.000000
  163        1.600833  -0.000000
  164        1.612220  -0.000000
  165        1.614868  -0.000000
  166        1.648145  -0.000000
  167        1.661740  -0.000000
  168        1.724784  -0.000000
  169        1.775234  -0.000000
  170        1.795231  -0.000000
  171        1.805219  -0.000000
  172        1.810287  -0.000000
  173        1.858946  -0.000000
  174        1.917665  -0.000000
  175        1.943298  -0.000000
  176        1.966253  -0.000000
  177        1.983221  -0.000000
  178        2.020931  -0.000000
  179        2.033156  -0.000000
  180        2.044437  -0.000000
  181        2.101073  -0.000000
  182        2.108906  -0.000000
  183        2.233781  -0.000000
  184        2.275539  -0.000000

  0.3742002E-15  0.1111111E+00  0.1262379E-14  0.4444444E-01
    1      -13.899807   1.000000
    2      -12.771471   1.000000
    3      -12.732239   1.000000
    4      -12.698116   1.000000
    5      -11.879725   1.000000
    6      -11.696194   1.000000
    7      -11.593424   1.000000
    8      -11.586181   1.000000
    9      -11.418632   1.000000
   10      -11.361493   1.000000
   11      -11.211198   1.000000
   12      -11.065256   1.000000
   13      -11.026146   1.000000
   14      -10.671599   1.000000
   15      -10.624997   1.000000
   16      -10.508408   1.000000
   17      -10.131372   1.000000
   18      -10.122048   1.000000
   19      -10.028107   1.000000
   20       -9.934823   1.000000
   21       -9.715417   1.000000
   22       -9.663445   1.000000
   23       -9.520647   1.000000
   24       -9.358614   1.000000
   25       -8.978911   1.000000
   26       -8.961813   1.000000
   27       -8.894639   1.000000
   28       -8.528017   1.000000
   29       -8.437717   1.000000
   30       -8.359342   1.000000
   31       -8.033066   1.000000
   32       -7.897022   1.000000
   33       -7.837821   1.000000
   34       -7.739191   1.000000
   35       -7.364031   1.000000
   36       -7.359239   1.000000
   37       -7.257610   1.000000
   38       -7.048806   1.000000
   39       -6.912752   1.000000
   40       -6.702909   1.000000
   41       -6.664306   1.000000
   42       -6.642389   1.000000
   43       -6.615432   1.000000
   44       -6.529622   1.000000
   45       -6.461084   1.000000
   46       -6.446543   1.000000
   47       -6.407453   1.000000
   48       -6.236877   1.000000
   49       -6.225869   1.000000
   50       -6.115641   1.000000
   51       -6.030879   1.000000
   52       -5.873779   1.000000
   53       -5.807283   1.000000
   54       -5.772749   1.000000
   55       -5.672982   1.000000
   56       -5.630686   1.000000
   57       -5.554545   1.000000
   58       -5.458466   1.000000
   59       -5.294319   1.000000
   60       -5.266924   1.000000
   61       -5.254572   1.000000
   62       -5.170402   1.000000
   63       -4.991642   1.000000
   64       -4.842027   1.000000
   65       -4.790234   1.000000
   66       -4.670978   1.000000
   67       -4.648198   1.000000
   68       -4.607534   1.000000
   69       -4.577956   1.000000
   70       -4.558357   1.000000
   71       -4.412767   1.000000
   72       -4.378865   1.000000
   73       -4.316468   1.000000
   74       -4.201677   1.000000
   75       -4.171052   1.000000
   76       -4.109477   1.000000
   77       -4.081526   1.000000
   78       -4.076936   1.000000
   79       -4.019860   1.000000
   80       -3.985086   1.000000
   81       -3.979735   1.000000
   82       -3.910518   1.000000
   83       -3.859086   1.000000
   84       -3.775045   1.000000
   85       -3.773353   1.000000
   86       -3.728017   1.000000
   87       -3.694127   1.000000
   88       -3.633201   1.000000
   89       -3.546221   1.000000
   90       -3.535706   1.000000
   91       -3.515092   1.000000
   92       -3.263664   1.000000
   93       -3.122955   1.000000
   94       -3.014913   1.000000
   95       -3.010647   1.000000
   96       -2.980025   1.000000
   97       -2.813481   1.000000
   98       -2.775838   1.000000
   99       -2.760455   1.000000
  100       -2.715665   1.000000
  101       -2.658736   1.000000
  102       -2.635835   1.000000
  103       -2.525390   1.000000
  104       -2.513579   1.000000
  105       -2.387487   1.000000
  106       -2.342581   1.000000
  107       -2.284925   1.000000
  108       -2.190612   1.000000
  109       -2.187011   1.000000
  110       -2.147006   1.000000
  111       -2.056310   1.000000
  112       -2.046064   1.000000
  113       -2.035280   1.000000
  114       -1.903002   1.000000
  115       -1.873023   1.000000
  116       -1.737364   1.000000
  117       -1.624891   1.000000
  118       -1.580687   1.000000
  119       -1.564894   1.000000
  120       -1.395749   1.000000
  121       -1.295126   1.000000
  122       -1.224019   1.000000
  123       -1.009775   1.000000
  124       -0.915812   1.000000
  125       -0.870759   1.000000
  126       -0.813701   1.000000
  127       -0.685305   1.000000
  128       -0.648337   1.000000
  129       -0.518887   1.000000
  130       -0.316442   1.000000
  131       -0.245607   1.000000
  132       -0.224602   1.000000
  133       -0.088135   1.000000
  134       -0.025449   1.000000
  135        0.109982   1.000002
  136        0.140426   1.000015
  137        0.222652   1.001206
  138        0.239496   1.002467
  139        0.266312   1.006682
  140        0.310286   1.022394
  141        0.408137   0.935533
  142        0.426518   0.842747
  143        0.499164   0.277320
  144        0.576162  -0.029127
  145        0.585241  -0.034060
  146        0.645978  -0.016741
  147        0.700710  -0.002813
  148        0.770763  -0.000099
  149        0.796499  -0.000022
  150        0.990056  -0.000000
  151        1.040970  -0.000000
  152        1.106241  -0.000000
  153        1.121969  -0.000000
  154        1.176799  -0.000000
  155        1.235098  -0.000000
  156        1.257833  -0.000000
  157        1.301658  -0.000000
  158        1.313158  -0.000000
  159        1.328170  -0.000000
  160        1.433286  -0.000000
  161        1.448993  -0.000000
  162        1.461895  -0.000000
  163        1.473401  -0.000000
  164        1.495060  -0.000000
  165        1.587606  -0.000000
  166        1.625224  -0.000000
  167        1.664175  -0.000000
  168        1.718148  -0.000000
  169        1.752263  -0.000000
  170        1.766140  -0.000000
  171        1.809218  -0.000000
  172        1.809555  -0.000000
  173        1.861996  -0.000000
  174        1.867735  -0.000000
  175        1.885806  -0.000000
  176        1.923308  -0.000000
  177        1.954248  -0.000000
  178        2.004319  -0.000000
  179        2.007120  -0.000000
  180        2.052823  -0.000000
  181        2.062208  -0.000000
  182        2.120810  -0.000000
  183        2.205215  -0.000000
  184        2.298238  -0.000000

  0.2000000E+00  0.1111111E+00  0.1262379E-14  0.4444444E-01
    1      -13.851756   1.000000
    2      -13.152899   1.000000
    3      -12.654082   1.000000
    4      -12.281786   1.000000
    5      -12.010242   1.000000
    6      -11.863414   1.000000
    7      -11.664848   1.000000
    8      -11.345249   1.000000
    9      -11.337837   1.000000
   10      -11.220247   1.000000
   11      -11.187454   1.000000
   12      -11.120623   1.000000
   13      -10.932381   1.000000
   14      -10.746151   1.000000
   15      -10.697419   1.000000
   16      -10.571309   1.000000
   17      -10.529760   1.000000
   18      -10.190265   1.000000
   19      -10.117277   1.000000
   20       -9.695831   1.000000
   21       -9.669930   1.000000
   22       -9.522753   1.000000
   23       -9.441389   1.000000
   24       -9.366232   1.000000
   25       -9.183002   1.000000
   26       -9.044528   1.000000
   27       -8.665560   1.000000
   28       -8.380338   1.000000
   29       -8.366066   1.000000
   30       -8.244770   1.000000
   31       -8.138112   1.000000
   32       -7.954359   1.000000
   33       -7.778929   1.000000
   34       -7.715433   1.000000
   35       -7.568486   1.000000
   36       -7.323732   1.000000
   37       -7.185620   1.000000
   38       -7.113767   1.000000
   39       -7.085973   1.000000
   40       -6.827617   1.000000
   41       -6.730216   1.000000
   42       -6.681559   1.000000
   43       -6.642401   1.000000
   44       -6.604389   1.000000
   45       -6.585270   1.000000
   46       -6.521646   1.000000
   47       -6.209500   1.000000
   48       -6.170140   1.000000
   49       -6.095985   1.000000
   50       -6.041977   1.000000
   51       -5.958801   1.000000
   52       -5.899237   1.000000
   53       -5.785279   1.000000
   54       -5.651751   1.000000
   55       -5.610429   1.000000
   56       -5.537658   1.000000
   57       -5.488047   1.000000
   58       -5.464290   1.000000
   59       -5.334278   1.000000
   60       -5.295622   1.000000
   61       -5.258987   1.000000
   62       -5.179649   1.000000
   63       -5.057097   1.000000
   64       -4.830502   1.000000
   65       -4.817205   1.000000
   66       -4.724232   1.000000
   67       -4.643909   1.000000
   68       -4.622001   1.000000
   69       -4.582454   1.000000
   70       -4.559172   1.000000
   71       -4.366974   1.000000
   72       -4.360693   1.000000
   73       -4.266543   1.000000
   74       -4.169672   1.000000
   75       -4.159092   1.000000
   76       -4.146948   1.000000
   77       -4.131715   1.000000
   78       -4.090647   1.000000
   79       -4.035450   1.000000
   80       -4.014120   1.000000
   81       -3.996143   1.000000
   82       -3.912955   1.000000
   83       -3.855974   1.000000
   84       -3.827023   1.000000
   85       -3.747833   1.000000
   86       -3.661088   1.000000
   87       -3.641169   1.000000
   88       -3.608857   1.000000
   89       -3.602523   1.000000
   90       -3.511330   1.000000
   91       -3.427021   1.000000
   92       -3.244963   1.000000
   93       -3.172988   1.000000
   94       -3.146115   1.000000
   95       -3.024349   1.000000
   96       -3.017854   1.000000
   97       -2.964958   1.000000
   98       -2.864348   1.000000
   99       -2.798851   1.000000
  100       -2.784516   1.000000
  101       -2.712263   1.000000
  102       -2.597829   1.000000
  103       -2.498856   1.000000
  104       -2.394695   1.000000
  105       -2.362752   1.000000
  106       -2.284985   1.000000
  107       -2.249640   1.000000
  108       -2.160520   1.000000
  109       -2.085345   1.000000
  110       -2.074323   1.000000
  111       -2.048384   1.000000
  112       -1.992702   1.000000
  113       -1.921251   1.000000
  114       -1.885533   1.000000
  115       -1.832802   1.000000
  116       -1.750152   1.000000
  117       -1.712447   1.000000
  118       -1.629037   1.000000
  119       -1.429180   1.000000
  120       -1.337440   1.000000
  121       -1.324778   1.000000
  122       -1.281895   1.000000
  123       -1.027794   1.000000
  124       -0.987064   1.000000
  125       -0.954758   1.000000
  126       -0.903802   1.000000
  127       -0.777775   1.000000
  128       -0.694592   1.000000
  129       -0.482757   1.000000
  130       -0.429267   1.000000
  131       -0.265654   1.000000
  132       -0.219534   1.000000
  133       -0.100070   1.000000
  134       -0.010315   1.000000
  135        0.024340   1.000000
  136        0.048082   1.000000
  137        0.156546   1.000039
  138        0.209745   1.000666
  139        0.234786   1.002033
  140        0.409473   0.929935
  141        0.452464   0.659823
  142        0.489030   0.356086
  143        0.518625   0.147496
  144        0.565360  -0.017175
  145        0.632166  -0.022870
  146        0.671918  -0.007949
  147        0.679431  -0.006187
  148        0.845162  -0.000001
  149        0.876016  -0.000000
  150        0.907764  -0.000000
  151        1.061756  -0.000000
  152        1.081835  -0.000000
  153        1.172667  -0.000000
  154        1.216012  -0.000000
  155        1.290487  -0.000000
  156        1.332902  -0.000000
  157        1.333669  -0.000000