 running on   72 total cores
 distrk:  each k-point on   72 cores,    1 groups
 distr:  one band on    9 cores,    8 groups
 using from now: INCAR     
 vasp.5.4.4.18Apr17-6-g9f103f2a35 (build Dec  7 2020 12:43:57) complex           
 POSCAR found type information on POSCAR  Mo V  B  H 
 POSCAR found :  4 types and      74 ions
 scaLAPACK will be used
 LDA part: xc-table for Pade appr. of Perdew
 POSCAR, INCAR and KPOINTS ok, starting setup
 resort distribution
 resort distribution
 resort distribution
 resort distribution
 resort distribution
 resort distribution
 resort distribution
 resort distribution
 resort distribution
 resort distribution
 resort distribution
 resort distribution
 resort distribution
 resort distribution
 resort distribution
 resort distribution
 resort distribution
 resort distribution
 resort distribution
 resort distribution
 resort distribution
 resort distribution
 resort distribution
 resort distribution
 resort distribution
 resort distribution
 resort distribution
 resort distribution
 resort distribution
 resort distribution
 resort distribution
 resort distribution
 resort distribution
 resort distribution
 resort distribution
 resort distribution
 resort distribution
 resort distribution
 resort distribution
 resort distribution
 resort distribution
 resort distribution
 resort distribution
 resort distribution
 resort distribution
 resort distribution
 resort distribution
 resort distribution
 resort distribution
 resort distribution
 resort distribution
 resort distribution
 resort distribution
 resort distribution
 resort distribution
 resort distribution
 resort distribution
 resort distribution
 resort distribution
 resort distribution
 resort distribution
 resort distribution
 resort distribution
 resort distribution
 resort distribution
 resort distribution
 resort distribution
 resort distribution
 resort distribution
 resort distribution
 resort distribution
 resort distribution
 FFT: planning ...
 WAVECAR not read
 augmentation electrons   284.03523702230996     
 soft         electrons   0.0000000000000000     
 augmentation electrons   284.03523702230996     
 soft         electrons   0.0000000000000000     
 augmentation electrons   284.03523702230996     
 soft         electrons   0.0000000000000000     
 augmentation electrons   284.03523702230996     
 soft         electrons   0.0000000000000000     
 augmentation electrons   284.03523702230996     
 soft         electrons   0.0000000000000000     
 augmentation electrons   284.03523702230996     
 soft         electrons   0.0000000000000000     
 augmentation electrons   284.03523702230996     
 soft         electrons   0.0000000000000000     
 augmentation electrons   284.03523702230996     
 soft         electrons   0.0000000000000000     
 augmentation electrons   284.03523702230996     
 soft         electrons   0.0000000000000000     
 augmentation electrons   284.03523702230996     
 soft         electrons   0.0000000000000000     
 augmentation electrons   284.03523702230996     
 soft         electrons   0.0000000000000000     
 augmentation electrons   284.03523702230996     
 soft         electrons   0.0000000000000000     
 augmentation electrons   284.03523702230996     
 soft         electrons   0.0000000000000000     
 augmentation electrons   284.03523702230996     
 soft         electrons   0.0000000000000000     
 augmentation electrons   284.03523702230996     
 soft         electrons   0.0000000000000000     
 augmentation electrons   284.03523702230996     
 soft         electrons   0.0000000000000000     
 augmentation electrons   284.03523702230996     
 soft         electrons   0.0000000000000000     
 augmentation electrons   284.03523702230996     
 soft         electrons   0.0000000000000000     
 augmentation electrons   284.03523702230996     
 soft         electrons   0.0000000000000000     
 augmentation electrons   284.03523702230996     
 soft         electrons   0.0000000000000000     
 augmentation electrons   284.03523702230996     
 soft         electrons   0.0000000000000000     
 augmentation electrons   284.03523702230996     
 soft         electrons   0.0000000000000000     
 augmentation electrons   284.03523702230996     
 soft         electrons   0.0000000000000000     
 augmentation electrons   284.03523702230996     
 soft         electrons   0.0000000000000000     
 augmentation electrons   284.03523702230996     
 soft         electrons   0.0000000000000000     
 augmentation electrons   284.03523702230996     
 soft         electrons   0.0000000000000000     
 augmentation electrons   284.03523702230996     
 soft         electrons   0.0000000000000000     
 augmentation electrons   284.03523702230996     
 soft         electrons   0.0000000000000000     
 augmentation electrons   284.03523702230996     
 soft         electrons   0.0000000000000000     
 augmentation electrons   284.03523702230996     
 soft         electrons   0.0000000000000000     
 augmentation electrons   284.03523702230996     
 soft         electrons   0.0000000000000000     
 augmentation electrons   284.03523702230996     
 soft         electrons   0.0000000000000000     
 augmentation electrons   284.03523702230996     
 soft         electrons   0.0000000000000000     
 augmentation electrons   284.03523702230996     
 soft         electrons   0.0000000000000000     
 augmentation electrons   284.03523702230996     
 soft         electrons   0.0000000000000000     
 augmentation electrons   284.03523702230996     
 soft         electrons   0.0000000000000000     
 augmentation electrons   284.03523702230996     
 soft         electrons   0.0000000000000000     
 augmentation electrons   284.03523702230996     
 soft         electrons   0.0000000000000000     
 augmentation electrons   284.03523702230996     
 soft         electrons   0.0000000000000000     
 augmentation electrons   284.03523702230996     
 soft         electrons   0.0000000000000000     
 augmentation electrons   284.03523702230996     
 soft         electrons   0.0000000000000000     
 augmentation electrons   284.03523702230996     
 soft         electrons   0.0000000000000000     
 augmentation electrons   284.03523702230996     
 soft         electrons   0.0000000000000000     
 augmentation electrons   284.03523702230996     
 soft         electrons   0.0000000000000000     
 augmentation electrons   284.03523702230996     
 soft         electrons   0.0000000000000000     
 augmentation electrons   284.03523702230996     
 soft         electrons   0.0000000000000000     
 augmentation electrons   284.03523702230996     
 soft         electrons   0.0000000000000000     
 augmentation electrons   284.03523702230996     
 soft         electrons   0.0000000000000000     
 augmentation electrons   284.03523702230996     
 soft         electrons   0.0000000000000000     
 augmentation electrons   284.03523702230996     
 soft         electrons   0.0000000000000000     
 augmentation electrons   284.03523702230996     
 soft         electrons   0.0000000000000000     
 augmentation electrons   284.03523702230996     
 soft         electrons   0.0000000000000000     
 augmentation electrons   284.03523702230996     
 soft         electrons   0.0000000000000000     
 augmentation electrons   284.03523702230996     
 soft         electrons   0.0000000000000000     
 augmentation electrons   284.03523702230996     
 soft         electrons   0.0000000000000000     
 augmentation electrons   284.03523702230996     
 soft         electrons   0.0000000000000000     
 augmentation electrons   284.03523702230996     
 soft         electrons   0.0000000000000000     
 augmentation electrons   284.03523702230996     
 soft         electrons   0.0000000000000000     
 augmentation electrons   284.03523702230996     
 soft         electrons   0.0000000000000000     
 augmentation electrons   284.03523702230996     
 soft         electrons   0.0000000000000000     
 augmentation electrons   284.03523702230996     
 soft         electrons   0.0000000000000000     
 augmentation electrons   284.03523702230996     
 soft         electrons   0.0000000000000000     
 augmentation electrons   284.03523702230996     
 soft         electrons   0.0000000000000000     
 augmentation electrons   284.03523702230996     
 soft         electrons   0.0000000000000000     
 augmentation electrons   284.03523702230996     
 soft         electrons   0.0000000000000000     
 augmentation electrons   284.03523702230996     
 soft         electrons   0.0000000000000000     
 augmentation electrons   284.03523702230996     
 soft         electrons   0.0000000000000000     
 augmentation electrons   284.03523702230996     
 soft         electrons   0.0000000000000000     
 augmentation electrons   284.03523702230996     
 soft         electrons   0.0000000000000000     
 augmentation electrons   284.03523702230996     
 soft         electrons   0.0000000000000000     
 augmentation electrons   284.03523702230996     
 soft         electrons   0.0000000000000000     
 augmentation electrons   284.03523702230996     
 soft         electrons   0.0000000000000000     
 total        electrons   284.03523702230996     
 total        electrons   284.03523702230996     
 total        electrons   284.03523702230996     
 total        electrons   284.03523702230996     
 total        electrons   284.03523702230996     
 total        electrons   284.03523702230996     
 total        electrons   284.03523702230996     
 total        electrons   284.03523702230996     
 total        electrons   284.03523702230996     
 total        electrons   284.03523702230996     
 total        electrons   284.03523702230996     
 total        electrons   284.03523702230996     
 total        electrons   284.03523702230996     
 total        electrons   284.03523702230996     
 total        electrons   284.03523702230996     
 total        electrons   284.03523702230996     
 total        electrons   284.03523702230996     
 total        electrons   284.03523702230996     
 total        electrons   284.03523702230996     
 total        electrons   284.03523702230996     
 total        electrons   284.03523702230996     
 total        electrons   284.03523702230996     
 total        electrons   284.03523702230996     
 total        electrons   284.03523702230996     
 total        electrons   284.03523702230996     
 total        electrons   284.03523702230996     
 total        electrons   284.03523702230996     
 total        electrons   284.03523702230996     
 total        electrons   284.03523702230996     
 total        electrons   284.03523702230996     
 total        electrons   284.03523702230996     
 total        electrons   284.03523702230996     
 total        electrons   284.03523702230996     
 total        electrons   284.03523702230996     
 total        electrons   284.03523702230996     
 total        electrons   284.03523702230996     
 total        electrons   284.03523702230996     
 total        electrons   284.03523702230996     
 total        electrons   284.03523702230996     
 total        electrons   284.03523702230996     
 total        electrons   284.03523702230996     
 total        electrons   284.03523702230996     
 total        electrons   284.03523702230996     
 total        electrons   284.03523702230996     
 total        electrons   284.03523702230996     
 total        electrons   284.03523702230996     
 total        electrons   284.03523702230996     
 total        electrons   284.03523702230996     
 total        electrons   284.03523702230996     
 total        electrons   284.03523702230996     
 total        electrons   284.03523702230996     
 total        electrons   284.03523702230996     
 total        electrons   284.03523702230996     
 total        electrons   284.03523702230996     
 total        electrons   284.03523702230996     
 total        electrons   284.03523702230996     
 total        electrons   284.03523702230996     
 total        electrons   284.03523702230996     
 total        electrons   284.03523702230996     
 total        electrons   284.03523702230996     
 total        electrons   284.03523702230996     
 total        electrons   284.03523702230996     
 total        electrons   284.03523702230996     
 total        electrons   284.03523702230996     
 total        electrons   284.03523702230996     
 total        electrons   284.03523702230996     
 total        electrons   284.03523702230996     
 total        electrons   284.03523702230996     
 total        electrons   284.03523702230996     
 total        electrons   284.03523702230996     
 total        electrons   284.03523702230996     
 total        electrons   284.03523702230996     
 augmentation electrons   1046.9897952800966     
 soft         electrons   0.0000000000000000     
 augmentation electrons   1046.9897952800966     
 soft         electrons   0.0000000000000000     
 augmentation electrons   1046.9897952800966     
 soft         electrons   0.0000000000000000     
 augmentation electrons   1046.9897952800966     
 soft         electrons   0.0000000000000000     
 augmentation electrons   1046.9897952800966     
 soft         electrons   0.0000000000000000     
 augmentation electrons   1046.9897952800966     
 soft         electrons   0.0000000000000000     
 augmentation electrons   1046.9897952800966     
 soft         electrons   0.0000000000000000     
 augmentation electrons   1046.9897952800966     
 soft         electrons   0.0000000000000000     
 augmentation electrons   1046.9897952800966     
 soft         electrons   0.0000000000000000     
 augmentation electrons   1046.9897952800966     
 soft         electrons   0.0000000000000000     
 augmentation electrons   1046.9897952800966     
 soft         electrons   0.0000000000000000     
 augmentation electrons   1046.9897952800966     
 soft         electrons   0.0000000000000000     
 augmentation electrons   1046.9897952800966     
 soft         electrons   0.0000000000000000     
 augmentation electrons   1046.9897952800966     
 soft         electrons   0.0000000000000000     
 augmentation electrons   1046.9897952800966     
 soft         electrons   0.0000000000000000     
 augmentation electrons   1046.9897952800966     
 soft         electrons   0.0000000000000000     
 augmentation electrons   1046.9897952800966     
 soft         electrons   0.0000000000000000     
 augmentation electrons   1046.9897952800966     
 soft         electrons   0.0000000000000000     
 augmentation electrons   1046.9897952800966     
 soft         electrons   0.0000000000000000     
 augmentation electrons   1046.9897952800966     
 soft         electrons   0.0000000000000000     
 augmentation electrons   1046.9897952800966     
 soft         electrons   0.0000000000000000     
 augmentation electrons   1046.9897952800966     
 soft         electrons   0.0000000000000000     
 augmentation electrons   1046.9897952800966     
 soft         electrons   0.0000000000000000     
 augmentation electrons   1046.9897952800966     
 soft         electrons   0.0000000000000000     
 augmentation electrons   1046.9897952800966     
 soft         electrons   0.0000000000000000     
 augmentation electrons   1046.9897952800966     
 soft         electrons   0.0000000000000000     
 augmentation electrons   1046.9897952800966     
 soft         electrons   0.0000000000000000     
 augmentation electrons   1046.9897952800966     
 soft         electrons   0.0000000000000000     
 augmentation electrons   1046.9897952800966     
 soft         electrons   0.0000000000000000     
 augmentation electrons   1046.9897952800966     
 soft         electrons   0.0000000000000000     
 augmentation electrons   1046.9897952800966     
 soft         electrons   0.0000000000000000     
 augmentation electrons   1046.9897952800966     
 soft         electrons   0.0000000000000000     
 augmentation electrons   1046.9897952800966     
 soft         electrons   0.0000000000000000     
 augmentation electrons   1046.9897952800966     
 soft         electrons   0.0000000000000000     
 augmentation electrons   1046.9897952800966     
 soft         electrons   0.0000000000000000     
 augmentation electrons   1046.9897952800966     
 soft         electrons   0.0000000000000000     
 augmentation electrons   1046.9897952800966     
 soft         electrons   0.0000000000000000     
 augmentation electrons   1046.9897952800966     
 soft         electrons   0.0000000000000000     
 augmentation electrons   1046.9897952800966     
 augmentation electrons   1046.9897952800966     
 soft         electrons   0.0000000000000000     
 augmentation electrons   1046.9897952800966     
 soft         electrons   0.0000000000000000     
 augmentation electrons   1046.9897952800966     
 soft         electrons   0.0000000000000000     
 augmentation electrons   1046.9897952800966     
 soft         electrons   0.0000000000000000     
 augmentation electrons   1046.9897952800966     
 soft         electrons   0.0000000000000000     
 augmentation electrons   1046.9897952800966     
 soft         electrons   0.0000000000000000     
 augmentation electrons   1046.9897952800966     
 soft         electrons   0.0000000000000000     
 augmentation electrons   1046.9897952800966     
 soft         electrons   0.0000000000000000     
 augmentation electrons   1046.9897952800966     
 soft         electrons   0.0000000000000000     
 augmentation electrons   1046.9897952800966     
 soft         electrons   0.0000000000000000     
 augmentation electrons   1046.9897952800966     
 soft         electrons   0.0000000000000000     
 augmentation electrons   1046.9897952800966     
 soft         electrons   0.0000000000000000     
 augmentation electrons   1046.9897952800966     
 soft         electrons   0.0000000000000000     
 augmentation electrons   1046.9897952800966     
 soft         electrons   0.0000000000000000     
 augmentation electrons   1046.9897952800966     
 soft         electrons   0.0000000000000000     
 augmentation electrons   1046.9897952800966     
 soft         electrons   0.0000000000000000     
 augmentation electrons   1046.9897952800966     
 soft         electrons   0.0000000000000000     
 augmentation electrons   1046.9897952800966     
 soft         electrons   0.0000000000000000     
 augmentation electrons   1046.9897952800966     
 soft         electrons   0.0000000000000000     
 augmentation electrons   1046.9897952800966     
 soft         electrons   0.0000000000000000     
 augmentation electrons   1046.9897952800966     
 soft         electrons   0.0000000000000000     
 augmentation electrons   1046.9897952800966     
 soft         electrons   0.0000000000000000     
 augmentation electrons   1046.9897952800966     
 soft         electrons   0.0000000000000000     
 augmentation electrons   1046.9897952800966     
 soft         electrons   0.0000000000000000     
 augmentation electrons   1046.9897952800966     
 soft         electrons   0.0000000000000000     
 augmentation electrons   1046.9897952800966     
 soft         electrons   0.0000000000000000     
 augmentation electrons   1046.9897952800966     
 soft         electrons   0.0000000000000000     
 augmentation electrons   1046.9897952800966     
 soft         electrons   0.0000000000000000     
 augmentation electrons   1046.9897952800966     
 soft         electrons   0.0000000000000000     
 augmentation electrons   1046.9897952800966     
 soft         electrons   0.0000000000000000     
 augmentation electrons   1046.9897952800966     
 soft         electrons   0.0000000000000000     
 augmentation electrons   1046.9897952800966     
 soft         electrons   0.0000000000000000     
 augmentation electrons   1046.9897952800966     
 soft         electrons   0.0000000000000000     
 soft         electrons   0.0000000000000000     
 total        electrons   1046.9897952800966     
 total        electrons   1046.9897952800966     
 total        electrons   1046.9897952800966     
 total        electrons   1046.9897952800966     
 total        electrons   1046.9897952800966     
 total        electrons   1046.9897952800966     
 total        electrons   1046.9897952800966     
 total        electrons   1046.9897952800966     
 total        electrons   1046.9897952800966     
 total        electrons   1046.9897952800966     
 total        electrons   1046.9897952800966     
 total        electrons   1046.9897952800966     
 total        electrons   1046.9897952800966     
 total        electrons   1046.9897952800966     
 total        electrons   1046.9897952800966     
 total        electrons   1046.9897952800966     
 total        electrons   1046.9897952800966     
 total        electrons   1046.9897952800966     
 total        electrons   1046.9897952800966     
 total        electrons   1046.9897952800966     
 total        electrons   1046.9897952800966     
 total        electrons   1046.9897952800966     
 total        electrons   1046.9897952800966     
 total        electrons   1046.9897952800966     
 total        electrons   1046.9897952800966     
 total        electrons   1046.9897952800966     
 total        electrons   1046.9897952800966     
 total        electrons   1046.9897952800966     
 total        electrons   1046.9897952800966     
 total        electrons   1046.9897952800966     
 total        electrons   1046.9897952800966     
 total        electrons   1046.9897952800966     
 total        electrons   1046.9897952800966     
 total        electrons   1046.9897952800966     
 total        electrons   1046.9897952800966     
 total        electrons   1046.9897952800966     
 total        electrons   1046.9897952800966     
 total        electrons   1046.9897952800966     
 total        electrons   1046.9897952800966     
 total        electrons   1046.9897952800966     
 total        electrons   1046.9897952800966     
 total        electrons   1046.9897952800966     
 total        electrons   1046.9897952800966     
 total        electrons   1046.9897952800966     
 total        electrons   1046.9897952800966     
 total        electrons   1046.9897952800966     
 total        electrons   1046.9897952800966     
 total        electrons   1046.9897952800966     
 total        electrons   1046.9897952800966     
 total        electrons   1046.9897952800966     
 total        electrons   1046.9897952800966     
 total        electrons   1046.9897952800966     
 total        electrons   1046.9897952800966     
 total        electrons   1046.9897952800966     
 total        electrons   1046.9897952800966     
 total        electrons   1046.9897952800966     
 total        electrons   1046.9897952800966     
 total        electrons   1046.9897952800966     
 total        electrons   1046.9897952800966     
 total        electrons   1046.9897952800966     
 total        electrons   1046.9897952800966     
 total        electrons   1046.9897952800966     
 total        electrons   1046.9897952800966     
 total        electrons   1046.9897952800966     
 total        electrons   1046.9897952800966     
 total        electrons   1046.9897952800966     
 total        electrons   1046.9897952800966     
 total        electrons   1046.9897952800966     
 total        electrons   1046.9897952800966     
 total        electrons   1046.9897952800966     
 total        electrons   1046.9897952800966     
 total        electrons   1046.9897952800966     
 entering main loop
       N       E                     dE             d eps       ncg     rms          rms(c)
DAV:   1     0.245998258964E+04    0.24600E+04   -0.10354E+05  8464   0.127E+03
DAV:   2    -0.212244385955E+03   -0.26722E+04   -0.24802E+04  9640   0.314E+02
DAV:   3    -0.654000831979E+03   -0.44176E+03   -0.41938E+03 11984   0.147E+02
DAV:   4    -0.691941857539E+03   -0.37941E+02   -0.36193E+02 13688   0.468E+01
DAV:   5    -0.694445047285E+03   -0.25032E+01   -0.24125E+01 14400   0.112E+01    0.147E+02
RMM:   6    -0.644092554204E+03    0.50352E+02   -0.11709E+03 11607   0.886E+01    0.727E+01
RMM:   7    -0.721395877641E+03   -0.77303E+02   -0.37217E+02 11676   0.363E+01    0.534E+01
RMM:   8    -0.614934020345E+03    0.10646E+03   -0.87034E+01 10476   0.263E+01    0.333E+01
RMM:   9    -0.611418343459E+03    0.35157E+01   -0.42912E+01 11042   0.149E+01    0.301E+01
RMM:  10    -0.590958785824E+03    0.20460E+02   -0.18767E+01  9454   0.128E+01    0.193E+01
RMM:  11    -0.590635896716E+03    0.32289E+00   -0.57037E+00 10418   0.583E+00    0.168E+01
RMM:  12    -0.590771290647E+03   -0.13539E+00   -0.19212E+00 11545   0.199E+00    0.156E+01
RMM:  13    -0.590320546900E+03    0.45074E+00   -0.12682E+00  8906   0.337E+00    0.137E+01
RMM:  14    -0.590070301717E+03    0.25025E+00   -0.72792E+00  8541   0.946E+00    0.862E+00
RMM:  15    -0.589626446955E+03    0.44385E+00   -0.13676E+00  9898   0.321E+00    0.528E+00
RMM:  16    -0.589616633385E+03    0.98136E-02   -0.13864E+00 10412   0.260E+00    0.545E+00
RMM:  17    -0.589385319595E+03    0.23131E+00   -0.10693E+00 10980   0.225E+00    0.272E+00
RMM:  18    -0.589343203970E+03    0.42116E-01   -0.59407E-01 11424   0.148E+00    0.162E+00
RMM:  19    -0.589336702820E+03    0.65012E-02   -0.87547E-02 11850   0.399E-01    0.133E+00
RMM:  20    -0.589327430858E+03    0.92720E-02   -0.25291E-02  9656   0.422E-01    0.117E+00
RMM:  21    -0.589312545521E+03    0.14885E-01   -0.81812E-02 11272   0.529E-01    0.628E-01
RMM:  22    -0.589310502859E+03    0.20427E-02   -0.25405E-02 11292   0.312E-01    0.311E-01
RMM:  23    -0.589310368445E+03    0.13441E-03   -0.42981E-03 10549   0.146E-01    0.215E-01
RMM:  24    -0.589310492759E+03   -0.12431E-03   -0.13610E-03 10682   0.807E-02    0.114E-01
RMM:  25    -0.589311729412E+03   -0.12367E-02   -0.12922E-03 11063   0.565E-02    0.986E-02
RMM:  26    -0.589312378141E+03   -0.64873E-03   -0.64336E-04  9204   0.661E-02    0.118E-01
RMM:  27    -0.589312917915E+03   -0.53977E-03   -0.79933E-04 10158   0.724E-02    0.685E-02
RMM:  28    -0.589313855397E+03   -0.93748E-03   -0.10099E-03 11285   0.445E-02    0.777E-02
RMM:  29    -0.589314082704E+03   -0.22731E-03   -0.21385E-04 10404   0.328E-02    0.375E-02
RMM:  30    -0.589314256731E+03   -0.17403E-03   -0.89233E-05 10393   0.151E-02    0.366E-02
RMM:  31    -0.589314343394E+03   -0.86663E-04   -0.44422E-05  9655   0.146E-02    0.267E-02
RMM:  32    -0.589314415426E+03   -0.72032E-04   -0.36933E-05  8902   0.174E-02    0.271E-02
RMM:  33    -0.589314563723E+03   -0.14830E-03   -0.92576E-05 10836   0.192E-02    0.128E-02
RMM:  34    -0.589314663951E+03   -0.10023E-03   -0.21799E-05  8011   0.677E-03    0.120E-02
RMM:  35    -0.589314753812E+03   -0.89861E-04   -0.97028E-06  6482   0.989E-03    0.175E-02
RMM:  36    -0.589314825338E+03   -0.71526E-04   -0.70078E-06  6421   0.683E-03    0.869E-03
RMM:  37    -0.589314883951E+03   -0.58612E-04   -0.71429E-06  6688   0.408E-03    0.746E-03
RMM:  38    -0.589314903554E+03   -0.19603E-04   -0.30402E-06  5776   0.542E-03    0.274E-03
RMM:  39    -0.589314914032E+03   -0.10478E-04   -0.17951E-06  5487   0.289E-03    0.221E-03
RMM:  40    -0.589314923886E+03   -0.98539E-05   -0.12397E-06  5355   0.333E-03    0.126E-03
RMM:  41    -0.589314926982E+03   -0.30956E-05   -0.68424E-07  5032   0.232E-03    0.128E-03
RMM:  42    -0.589314929065E+03   -0.20827E-05   -0.48717E-07  4977   0.227E-03    0.918E-04
RMM:  43    -0.589314930005E+03   -0.94042E-06   -0.28171E-07  4302   0.142E-03
   1 F= -.58931493E+03 E0= -.58931710E+03  d E =-.589315E+03
 curvature:   0.00 expect dE= 0.000E+00 dE for cont linesearch  0.000E+00
 trial: gam= 0.00000 g(F)=  0.294E-02 g(S)=  0.000E+00 ort = 0.000E+00 (trialstep = 0.100E+01)
 search vector abs. value=  0.294E-02
 bond charge predicted
       N       E                     dE             d eps       ncg     rms          rms(c)
DAV:   1    -0.589317526168E+03   -0.25971E-02   -0.45342E-02  9280   0.400E-01    0.473E-02
RMM:   2    -0.589317585033E+03   -0.58865E-04   -0.66022E-04 10527   0.617E-02    0.342E-02
RMM:   3    -0.589317644670E+03   -0.59637E-04   -0.20291E-04  9476   0.427E-02    0.669E-02
RMM:   4    -0.589317627303E+03    0.17367E-04   -0.74243E-05  9332   0.282E-02    0.492E-02
RMM:   5    -0.589317594205E+03    0.33098E-04   -0.34879E-05  8808   0.175E-02    0.168E-02
RMM:   6    -0.589317593434E+03    0.77170E-06   -0.15717E-05  8025   0.941E-03    0.133E-02
RMM:   7    -0.589317592286E+03    0.11472E-05   -0.60024E-06  6272   0.854E-03    0.900E-03
RMM:   8    -0.589317592033E+03    0.25327E-06   -0.31283E-06  5889   0.557E-03
   2 F= -.58931759E+03 E0= -.58931977E+03  d E =-.266203E-02
 ZBRENT: can't locate minimum, use default step
 trial-energy change:   -0.002662  1 .order   -0.002658   -0.002943   -0.002373
 step:   4.0000(harm=  5.1625)  dis= 0.04389  next Energy=  -589.322527 (dE=-0.760E-02)
 bond charge predicted
       N       E                     dE             d eps       ncg     rms          rms(c)
DAV:   1    -0.589321702572E+03   -0.41103E-02   -0.41118E-01  9000   0.120E+00    0.145E-01
RMM:   2    -0.589322207646E+03   -0.50507E-03   -0.57709E-03 10559   0.185E-01    0.102E-01
RMM:   3    -0.589322865833E+03   -0.65819E-03   -0.19154E-03  9542   0.131E-01    0.219E-01
RMM:   4    -0.589322623338E+03    0.24250E-03   -0.68942E-04  9529   0.847E-02    0.155E-01
RMM:   5    -0.589322285112E+03    0.33823E-03   -0.33835E-04  9239   0.580E-02    0.476E-02
RMM:   6    -0.589322285364E+03   -0.25162E-06   -0.16406E-04 10683   0.280E-02    0.421E-02
RMM:   7    -0.589322273990E+03    0.11374E-04   -0.62834E-05  8721   0.245E-02    0.292E-02
RMM:   8    -0.589322270051E+03    0.39391E-05   -0.35914E-05  8777   0.148E-02    0.208E-02
RMM:   9    -0.589322265631E+03    0.44198E-05   -0.12379E-05  6960   0.959E-03    0.672E-03
RMM:  10    -0.589322266286E+03   -0.65496E-06   -0.64711E-06  6463   0.527E-03
   3 F= -.58932227E+03 E0= -.58932447E+03  d E =-.733628E-02
 curvature:  -2.38 expect dE=-0.747E-02 dE for cont linesearch -0.450E-03
 ZBRENT: extrapolating
 opt :   5.3750  next Energy=  -589.322779 (dE=-0.785E-02)
 bond charge predicted
       N       E                     dE             d eps       ncg     rms          rms(c)
DAV:   1    -0.589322680156E+03   -0.41453E-03   -0.86869E-02  8864   0.551E-01    0.676E-02
RMM:   2    -0.589322793892E+03   -0.11374E-03   -0.12943E-03 10647   0.873E-02    0.476E-02
RMM:   3    -0.589322910364E+03   -0.11647E-03   -0.41614E-04  9470   0.616E-02    0.930E-02
RMM:   4    -0.589322845647E+03    0.64716E-04   -0.14100E-04  9138   0.414E-02    0.508E-02
RMM:   5    -0.589322822433E+03    0.23214E-04   -0.69044E-05  9723   0.211E-02    0.335E-02
RMM:   6    -0.589322810646E+03    0.11787E-04   -0.26760E-05  9057   0.135E-02    0.151E-02
RMM:   7    -0.589322809807E+03    0.83924E-06   -0.11589E-05  7042   0.107E-02    0.118E-02
RMM:   8    -0.589322808741E+03    0.10666E-05   -0.51246E-06  6281   0.693E-03    0.782E-03
RMM:   9    -0.589322808408E+03    0.33250E-06   -0.21739E-06  5590   0.481E-03
   4 F= -.58932281E+03 E0= -.58932502E+03  d E =-.787840E-02
 curvature:  -2.71 expect dE=-0.147E-01 dE for cont linesearch -0.108E-05
 trial: gam= 1.83327 g(F)=  0.543E-02 g(S)=  0.000E+00 ort = 0.342E-04 (trialstep = 0.357E+00)
 search vector abs. value=  0.154E-01
 bond charge predicted
       N       E                     dE             d eps       ncg     rms          rms(c)
DAV:   1    -0.589324679892E+03   -0.18712E-02   -0.30459E-02  8800   0.325E-01    0.367E-02
RMM:   2    -0.589324721535E+03   -0.41643E-04   -0.39244E-04 10379   0.528E-02    0.282E-02
RMM:   3    -0.589324761276E+03   -0.39741E-04   -0.13508E-04  9725   0.351E-02    0.546E-02
RMM:   4    -0.589324752788E+03    0.84881E-05   -0.49534E-05  9164   0.214E-02    0.441E-02
RMM:   5    -0.589324729509E+03    0.23279E-04   -0.21142E-05  8091   0.159E-02    0.136E-02
RMM:   6    -0.589324729983E+03   -0.47338E-06   -0.12276E-05  7193   0.853E-03    0.158E-02
RMM:   7    -0.589324727632E+03    0.23510E-05   -0.41614E-06  5947   0.736E-03    0.451E-03
RMM:   8    -0.589324727715E+03   -0.83281E-07   -0.18148E-06  5475   0.408E-03
   5 F= -.58932473E+03 E0= -.58932694E+03  d E =-.191931E-02
 ZBRENT: can't locate minimum, use default step
 trial-energy change:   -0.001919  1 .order   -0.001914   -0.001962   -0.001866
 step:   1.4290(harm=  7.3129)  dis= 0.03787  next Energy=  -589.342892 (dE=-0.201E-01)
 bond charge predicted
       N       E                     dE             d eps       ncg     rms          rms(c)
DAV:   1    -0.589329479448E+03   -0.47518E-02   -0.27342E-01  8736   0.974E-01    0.109E-01
RMM:   2    -0.589329819493E+03   -0.34004E-03   -0.33433E-03 10085   0.157E-01    0.785E-02
RMM:   3    -0.589330144840E+03   -0.32535E-03   -0.12312E-03  9786   0.105E-01    0.150E-01
RMM:   4    -0.589330044488E+03    0.10035E-03   -0.41798E-04  9163   0.668E-02    0.113E-01
RMM:   5    -0.589329899659E+03    0.14483E-03   -0.17172E-04  9189   0.422E-02    0.397E-02
RMM:   6    -0.589329895526E+03    0.41328E-05   -0.10495E-04 10608   0.202E-02    0.363E-02
RMM:   7    -0.589329883775E+03    0.11751E-04   -0.35558E-05  8431   0.173E-02    0.183E-02
RMM:   8    -0.589329882747E+03    0.10276E-05   -0.18474E-05  7632   0.106E-02    0.139E-02
RMM:   9    -0.589329880564E+03    0.21831E-05   -0.61121E-06  6287   0.731E-03    0.449E-03
RMM:  10    -0.589329880837E+03   -0.27315E-06   -0.24679E-06  5740   0.367E-03
   6 F= -.58932988E+03 E0= -.58933209E+03  d E =-.707243E-02
 curvature:  -2.92 expect dE=-0.844E-02 dE for cont linesearch -0.357E-02
 ZBRENT: increasing intervall
 opt :   3.5725  next Energy=  -589.337293 (dE=-0.145E-01)
 bond charge predicted
       N       E                     dE             d eps       ncg     rms          rms(c)
DAV:   1    -0.589335384937E+03   -0.55044E-02   -0.10852E+00  8544   0.194E+00    0.215E-01
RMM:   2    -0.589336751068E+03   -0.13661E-02   -0.13451E-02 10443   0.308E-01    0.157E-01
RMM:   3    -0.589338251435E+03   -0.15004E-02   -0.48901E-03  9870   0.209E-01    0.324E-01
RMM:   4    -0.589337931185E+03    0.32025E-03   -0.17824E-03  9775   0.125E-01    0.266E-01
RMM:   5    -0.589337023537E+03    0.90765E-03   -0.80189E-04  9012   0.969E-02    0.724E-02
RMM:   6    -0.589337031199E+03   -0.76618E-05   -0.45679E-04 10692   0.454E-02    0.761E-02
RMM:   7    -0.589336980987E+03    0.50212E-04   -0.14374E-04  9579   0.350E-02    0.341E-02
RMM:   8    -0.589336980292E+03    0.69471E-06   -0.82516E-05  9857   0.208E-02    0.286E-02
RMM:   9    -0.589336970904E+03    0.93880E-05   -0.26682E-05  8067   0.133E-02    0.880E-03
RMM:  10    -0.589336972512E+03   -0.16077E-05   -0.14054E-05  7328   0.622E-03    0.800E-03
RMM:  11    -0.589336972180E+03    0.33134E-06   -0.30711E-06  5695   0.579E-03
   7 F= -.58933697E+03 E0= -.58933918E+03  d E =-.141638E-01
 curvature:  -6.08 expect dE=-0.226E-02 dE for cont linesearch -0.180E-02
 ZBRENT: increasing intervall
 opt :   7.8596  next Energy=  -589.336708 (dE=-0.139E-01)
 bond charge predicted
       N       E                     dE             d eps       ncg     rms          rms(c)
DAV:   1    -0.589327046177E+03    0.99263E-02   -0.42215E+00  8472   0.385E+00    0.414E-01
RMM:   2    -0.589332629772E+03   -0.55836E-02   -0.55029E-02 10531   0.618E-01    0.307E-01
RMM:   3    -0.589338598599E+03   -0.59688E-02   -0.18253E-02 10086   0.390E-01    0.633E-01
RMM:   4    -0.589337226053E+03    0.13725E-02   -0.74052E-03 10093   0.236E-01    0.540E-01
RMM:   5    -0.589333687290E+03    0.35388E-02   -0.38033E-03  8918   0.209E-01    0.151E-01
RMM:   6    -0.589333723859E+03   -0.36569E-04   -0.20749E-03 10694   0.945E-02    0.154E-01
RMM:   7    -0.589333519075E+03    0.20478E-03   -0.62318E-04  9611   0.737E-02    0.751E-02
RMM:   8    -0.589333501255E+03    0.17820E-04   -0.34613E-04 10456   0.429E-02    0.569E-02
RMM:   9    -0.589333463855E+03    0.37400E-04   -0.11844E-04  9347   0.278E-02    0.195E-02
RMM:  10    -0.589333469675E+03   -0.58201E-05   -0.61295E-05  9849   0.128E-02    0.169E-02
RMM:  11    -0.589333467297E+03    0.23784E-05   -0.14773E-05  7454   0.962E-03    0.868E-03
RMM:  12    -0.589333468227E+03   -0.93073E-06   -0.80287E-06  6766   0.647E-03
   8 F= -.58933347E+03 E0= -.58933566E+03  d E =-.106598E-01
 curvature:   0.89 expect dE= 0.567E-02 dE for cont linesearch  0.105E-02
 ZBRENT: bracketing found
 ZBRENT: interpolating
 opt :   5.0071  next Energy=  -589.338507 (dE=-0.157E-01)
 bond charge predicted
       N       E                     dE             d eps       ncg     rms          rms(c)
DAV:   1    -0.589336164461E+03   -0.26972E-02   -0.19043E+00  8464   0.259E+00    0.279E-01
RMM:   2    -0.589338386424E+03   -0.22220E-02   -0.22239E-02 10021   0.412E-01    0.202E-01
RMM:   3    -0.589341546139E+03   -0.31597E-02   -0.82439E-03 10347   0.257E-01    0.447E-01
RMM:   4    -0.589340293721E+03    0.12524E-02   -0.33735E-03 10079   0.158E-01    0.348E-01
RMM:   5    -0.589338836887E+03    0.14568E-02   -0.18106E-03  8821   0.144E-01    0.898E-02
RMM:   6    -0.589338885955E+03   -0.49068E-04   -0.95235E-04 10813   0.620E-02    0.993E-02
RMM:   7    -0.589338803595E+03    0.82360E-04   -0.26342E-04  9527   0.479E-02    0.504E-02
RMM:   8    -0.589338796786E+03    0.68091E-05   -0.15514E-04 10397   0.284E-02    0.384E-02
RMM:   9    -0.589338779569E+03    0.17217E-04   -0.53186E-05  8866   0.186E-02    0.128E-02
RMM:  10    -0.589338781880E+03   -0.23108E-05   -0.26888E-05  8480   0.919E-03    0.116E-02
RMM:  11    -0.589338780358E+03    0.15220E-05   -0.63287E-06  6310   0.683E-03    0.526E-03
RMM:  12    -0.589338780932E+03   -0.57427E-06   -0.35878E-06  5951   0.503E-03
   9 F= -.58933878E+03 E0= -.58934099E+03  d E =-.159725E-01
 curvature:  -1.31 expect dE=-0.412E-03 dE for cont linesearch -0.886E-05
 ZBRENT: interpolating
 opt :   5.2444  next Energy=  -589.338822 (dE=-0.160E-01)
 bond charge predicted
       N       E                     dE             d eps       ncg     rms          rms(c)
DAV:   1    -0.589338794948E+03   -0.14590E-04   -0.13221E-02  8800   0.216E-01    0.236E-02
RMM:   2    -0.589338814667E+03   -0.19719E-04   -0.18542E-04  9944   0.373E-02    0.197E-02
RMM:   3    -0.589338829213E+03   -0.14547E-04   -0.51189E-05  9806   0.201E-02    0.320E-02
RMM:   4    -0.589338829742E+03   -0.52850E-06   -0.27150E-05  8566   0.140E-02    0.352E-02
RMM:   5    -0.589338816211E+03    0.13530E-04   -0.13574E-05  7444   0.134E-02    0.823E-03
RMM:   6    -0.589338815942E+03    0.26951E-06   -0.55686E-06  6488   0.599E-03
  10 F= -.58933882E+03 E0= -.58934102E+03  d E =-.160075E-01
 curvature:  -6.07 expect dE=-0.288E-02 dE for cont linesearch -0.326E-06
 trial: gam= 0.32114 g(F)=  0.475E-03 g(S)=  0.000E+00 ort =-0.288E-04 (trialstep = 0.133E+01)
 search vector abs. value=  0.205E-02
 bond charge predicted
       N       E                     dE             d eps       ncg     rms          rms(c)
DAV:   1    -0.589339221837E+03   -0.40563E-03   -0.55737E-02  8528   0.443E-01    0.485E-02
RMM:   2    -0.589339296174E+03   -0.74337E-04   -0.70121E-04 10573   0.689E-02    0.384E-02
RMM:   3    -0.589339355281E+03   -0.59107E-04   -0.23161E-04  9643   0.464E-02    0.684E-02
RMM:   4    -0.589339365088E+03   -0.98070E-05   -0.91643E-05  9787   0.272E-02    0.650E-02
RMM:   5    -0.589339305202E+03    0.59886E-04   -0.39120E-05  8865   0.216E-02    0.135E-02
RMM:   6    -0.589339305776E+03   -0.57456E-06   -0.23661E-05  8949   0.940E-03    0.119E-02
RMM:   7    -0.589339304580E+03    0.11960E-05   -0.59653E-06  6312   0.801E-03    0.722E-03
RMM:   8    -0.589339304173E+03    0.40724E-06   -0.20929E-06  5574   0.497E-03
  11 F= -.58933930E+03 E0= -.58934151E+03  d E =-.488231E-03
 trial-energy change:   -0.000488  1 .order   -0.000486   -0.000621   -0.000350
 step:   3.0615(harm=  3.0615)  dis= 0.02942  next Energy=  -589.339529 (dE=-0.713E-03)
 bond charge predicted
       N       E                     dE             d eps       ncg     rms          rms(c)
DAV:   1    -0.589339416746E+03   -0.11217E-03   -0.93521E-02  8504   0.573E-01    0.624E-02
RMM:   2    -0.589339529401E+03   -0.11265E-03   -0.11067E-03 10582   0.866E-02    0.427E-02
RMM:   3    -0.589339652913E+03   -0.12351E-03   -0.38589E-04 10057   0.562E-02    0.910E-02
RMM:   4    -0.589339597031E+03    0.55882E-04   -0.12868E-04  9191   0.369E-02    0.598E-02
RMM:   5    -0.589339558645E+03    0.38386E-04   -0.60381E-05  9077   0.243E-02    0.257E-02
RMM:   6    -0.589339554236E+03    0.44086E-05   -0.29943E-05  8960   0.123E-02    0.186E-02
RMM:   7    -0.589339551777E+03    0.24593E-05   -0.96915E-06  6623   0.968E-03    0.104E-02
RMM:   8    -0.589339551489E+03    0.28815E-06   -0.54740E-06  6253   0.655E-03
  12 F= -.58933955E+03 E0= -.58934177E+03  d E =-.735547E-03
 curvature:  -6.74 expect dE=-0.136E-03 dE for cont linesearch -0.936E-06
 trial: gam=-0.11822 g(F)=  0.202E-04 g(S)=  0.000E+00 ort = 0.169E-04 (trialstep = 0.168E+01)
 search vector abs. value=  0.448E-04
 reached required accuracy - stopping structural energy minimisation
 augmentation electrons   31.464572591171848     
 soft         electrons   252.62777194218356     
 augmentation electrons   31.464572591171848     
 soft         electrons   252.62777194218356     
 augmentation electrons   31.464572591171848     
 soft         electrons   252.62777194218356     
 augmentation electrons   31.464572591171848     
 soft         electrons   252.62777194218356     
 augmentation electrons   31.464572591171848     
 soft         electrons   252.62777194218356     
 augmentation electrons   31.464572591171848     
 soft         electrons   252.62777194218356     
 augmentation electrons   31.464572591171848     
 soft         electrons   252.62777194218356     
 augmentation electrons   31.464572591171848     
 soft         electrons   252.62777194218356     
 augmentation electrons   31.464572591171848     
 soft         electrons   252.62777194218356     
 augmentation electrons   31.464572591171848     
 soft         electrons   252.62777194218356     
 augmentation electrons   31.464572591171848     
 soft         electrons   252.62777194218356     
 augmentation electrons   31.464572591171848     
 soft         electrons   252.62777194218356     
 augmentation electrons   31.464572591171848     
 soft         electrons   252.62777194218356     
 augmentation electrons   31.464572591171848     
 soft         electrons   252.62777194218356     
 augmentation electrons   31.464572591171848     
 soft         electrons   252.62777194218356     
 augmentation electrons   31.464572591171848     
 soft         electrons   252.62777194218356     
 augmentation electrons   31.464572591171848     
 soft         electrons   252.62777194218356     
 augmentation electrons   31.464572591171848     
 soft         electrons   252.62777194218356     
 augmentation electrons   31.464572591171848     
 soft         electrons   252.62777194218356     
 augmentation electrons   31.464572591171848     
 soft         electrons   252.62777194218356     
 augmentation electrons   31.464572591171848     
 soft         electrons   252.62777194218356     
 augmentation electrons   31.464572591171848     
 soft         electrons   252.62777194218356     
 augmentation electrons   31.464572591171848     
 soft         electrons   252.62777194218356     
 augmentation electrons   31.464572591171848     
 soft         electrons   252.62777194218356     
 augmentation electrons   31.464572591171848     
 soft         electrons   252.62777194218356     
 augmentation electrons   31.464572591171848     
 soft         electrons   252.62777194218356     
 augmentation electrons   31.464572591171848     
 soft         electrons   252.62777194218356     
 augmentation electrons   31.464572591171848     
 soft         electrons   252.62777194218356     
 augmentation electrons   31.464572591171848     
 soft         electrons   252.62777194218356     
 augmentation electrons   31.464572591171848     
 soft         electrons   252.62777194218356     
 augmentation electrons   31.464572591171848     
 soft         electrons   252.62777194218356     
 augmentation electrons   31.464572591171848     
 soft         electrons   252.62777194218356     
 augmentation electrons   31.464572591171848     
 soft         electrons   252.62777194218356     
 augmentation electrons   31.464572591171848     
 soft         electrons   252.62777194218356     
 augmentation electrons   31.464572591171848     
 soft         electrons   252.62777194218356     
 augmentation electrons   31.464572591171848     
 soft         electrons   252.62777194218356     
 augmentation electrons   31.464572591171848     
 soft         electrons   252.62777194218356     
 augmentation electrons   31.464572591171848     
 soft         electrons   252.62777194218356     
 augmentation electrons   31.464572591171848     
 soft         electrons   252.62777194218356     
 augmentation electrons   31.464572591171848     
 soft         electrons   252.62777194218356     
 augmentation electrons   31.464572591171848     
 soft         electrons   252.62777194218356     
 augmentation electrons   31.464572591171848     
 soft         electrons   252.62777194218356     
 augmentation electrons   31.464572591171848     
 soft         electrons   252.62777194218356     
 augmentation electrons   31.464572591171848     
 soft         electrons   252.62777194218356     
 augmentation electrons   31.464572591171848     
 soft         electrons   252.62777194218356     
 augmentation electrons   31.464572591171848     
 soft         electrons   252.62777194218356     
 augmentation electrons   31.464572591171848     
 soft         electrons   252.62777194218356     
 augmentation electrons   31.464572591171848     
 soft         electrons   252.62777194218356     
 augmentation electrons   31.464572591171848     
 soft         electrons   252.62777194218356     
 augmentation electrons   31.464572591171848     
 soft         electrons   252.62777194218356     
 augmentation electrons   31.464572591171848     
 soft         electrons   252.62777194218356     
 augmentation electrons   31.464572591171848     
 soft         electrons   252.62777194218356     
 augmentation electrons   31.464572591171848     
 soft         electrons   252.62777194218356     
 augmentation electrons   31.464572591171848     
 soft         electrons   252.62777194218356     
 augmentation electrons   31.464572591171848     
 soft         electrons   252.62777194218356     
 augmentation electrons   31.464572591171848     
 soft         electrons   252.62777194218356     
 augmentation electrons   31.464572591171848     
 soft         electrons   252.62777194218356     
 augmentation electrons   31.464572591171848     
 soft         electrons   252.62777194218356     
 augmentation electrons   31.464572591171848     
 soft         electrons   252.62777194218356     
 augmentation electrons   31.464572591171848     
 soft         electrons   252.62777194218356     
 augmentation electrons   31.464572591171848     
 soft         electrons   252.62777194218356     
 augmentation electrons   31.464572591171848     
 soft         electrons   252.62777194218356     
 augmentation electrons   31.464572591171848     
 soft         electrons   252.62777194218356     
 augmentation electrons   31.464572591171848     
 soft         electrons   252.62777194218356     
 augmentation electrons   31.464572591171848     
 soft         electrons   252.62777194218356     
 augmentation electrons   31.464572591171848     
 soft         electrons   252.62777194218356     
 augmentation electrons   31.464572591171848     
 soft         electrons   252.62777194218356     
 augmentation electrons   31.464572591171848     
 soft         electrons   252.62777194218356     
 augmentation electrons   31.464572591171848     
 soft         electrons   252.62777194218356     
 augmentation electrons   31.464572591171848     
 soft         electrons   252.62777194218356     
 augmentation electrons   31.464572591171848     
 soft         electrons   252.62777194218356     
 augmentation electrons   31.464572591171848     
 soft         electrons   252.62777194218356     
 total        electrons   284.09234453335540     
 total        electrons   284.09234453335540     
 total        electrons   284.09234453335540     
 total        electrons   284.09234453335540     
 total        electrons   284.09234453335540     
 total        electrons   284.09234453335540     
 total        electrons   284.09234453335540     
 total        electrons   284.09234453335540     
 total        electrons   284.09234453335540     
 total        electrons   284.09234453335540     
 total        electrons   284.09234453335540     
 total        electrons   284.09234453335540     
 total        electrons   284.09234453335540     
 total        electrons   284.09234453335540     
 total        electrons   284.09234453335540     
 total        electrons   284.09234453335540     
 total        electrons   284.09234453335540     
 total        electrons   284.09234453335540     
 total        electrons   284.09234453335540     
 total        electrons   284.09234453335540     
 total        electrons   284.09234453335540     
 total        electrons   284.09234453335540     
 total        electrons   284.09234453335540     
 total        electrons   284.09234453335540     
 total        electrons   284.09234453335540     
 total        electrons   284.09234453335540     
 total        electrons   284.09234453335540     
 total        electrons   284.09234453335540     
 total        electrons   284.09234453335540     
 total        electrons   284.09234453335540     
 total        electrons   284.09234453335540     
 total        electrons   284.09234453335540     
 total        electrons   284.09234453335540     
 total        electrons   284.09234453335540     
 total        electrons   284.09234453335540     
 total        electrons   284.09234453335540     
 total        electrons   284.09234453335540     
 total        electrons   284.09234453335540     
 total        electrons   284.09234453335540     
 total        electrons   284.09234453335540     
 total        electrons   284.09234453335540     
 total        electrons   284.09234453335540     
 total        electrons   284.09234453335540     
 total        electrons   284.09234453335540     
 total        electrons   284.09234453335540     
 total        electrons   284.09234453335540     
 total        electrons   284.09234453335540     
 total        electrons   284.09234453335540     
 total        electrons   284.09234453335540     
 total        electrons   284.09234453335540     
 total        electrons   284.09234453335540     
 total        electrons   284.09234453335540     
 total        electrons   284.09234453335540     
 total        electrons   284.09234453335540     
 total        electrons   284.09234453335540     
 total        electrons   284.09234453335540     
 total        electrons   284.09234453335540     
 total        electrons   284.09234453335540     
 total        electrons   284.09234453335540     
 total        electrons   284.09234453335540     
 total        electrons   284.09234453335540     
 total        electrons   284.09234453335540     
 total        electrons   284.09234453335540     
 total        electrons   284.09234453335540     
 total        electrons   284.09234453335540     
 total        electrons   284.09234453335540     
 total        electrons   284.09234453335540     
 total        electrons   284.09234453335540     
 total        electrons   284.09234453335540     
 total        electrons   284.09234453335540     
 total        electrons   284.09234453335540     
 total        electrons   284.09234453335540     
Note: The following floating-point exceptions are signalling: IEEE_OVERFLOW_FLAG
Note: The following floating-point exceptions are signalling: IEEE_OVERFLOW_FLAG
Note: The following floating-point exceptions are signalling: IEEE_OVERFLOW_FLAG
Note: The following floating-point exceptions are signalling: IEEE_OVERFLOW_FLAG
Note: The following floating-point exceptions are signalling: IEEE_OVERFLOW_FLAG
Note: The following floating-point exceptions are signalling: IEEE_OVERFLOW_FLAG
Note: The following floating-point exceptions are signalling: IEEE_OVERFLOW_FLAG
Note: The following floating-point exceptions are signalling: IEEE_OVERFLOW_FLAG
Note: The following floating-point exceptions are signalling: IEEE_OVERFLOW_FLAG
Note: The following floating-point exceptions are signalling: IEEE_OVERFLOW_FLAG
Note: The following floating-point exceptions are signalling: IEEE_OVERFLOW_FLAG
Note: The following floating-point exceptions are signalling: IEEE_OVERFLOW_FLAG
Note: The following floating-point exceptions are signalling: IEEE_OVERFLOW_FLAG
Note: The following floating-point exceptions are signalling: IEEE_OVERFLOW_FLAG
Note: The following floating-point exceptions are signalling: IEEE_OVERFLOW_FLAG
Note: The following floating-point exceptions are signalling: IEEE_OVERFLOW_FLAG
Note: The following floating-point exceptions are signalling: IEEE_OVERFLOW_FLAG
Note: The following floating-point exceptions are signalling: IEEE_OVERFLOW_FLAG
Note: The following floating-point exceptions are signalling: IEEE_OVERFLOW_FLAG
Note: The following floating-point exceptions are signalling: IEEE_OVERFLOW_FLAG
Note: The following floating-point exceptions are signalling: IEEE_OVERFLOW_FLAG
Note: The following floating-point exceptions are signalling: IEEE_OVERFLOW_FLAG
Note: The following floating-point exceptions are signalling: IEEE_OVERFLOW_FLAG
Note: The following floating-point exceptions are signalling: IEEE_OVERFLOW_FLAG
Note: The following floating-point exceptions are signalling: IEEE_OVERFLOW_FLAG
Note: The following floating-point exceptions are signalling: IEEE_OVERFLOW_FLAG
Note: The following floating-point exceptions are signalling: IEEE_OVERFLOW_FLAG
Note: The following floating-point exceptions are signalling: IEEE_OVERFLOW_FLAG
Note: The following floating-point exceptions are signalling: IEEE_OVERFLOW_FLAG
Note: The following floating-point exceptions are signalling: IEEE_OVERFLOW_FLAG
Note: The following floating-point exceptions are signalling: IEEE_OVERFLOW_FLAG
Note: The following floating-point exceptions are signalling: IEEE_OVERFLOW_FLAG
Note: The following floating-point exceptions are signalling: IEEE_OVERFLOW_FLAG
Note: The following floating-point exceptions are signalling: IEEE_OVERFLOW_FLAG
Note: The following floating-point exceptions are signalling: IEEE_OVERFLOW_FLAG
Note: The following floating-point exceptions are signalling: IEEE_OVERFLOW_FLAG
Note: The following floating-point exceptions are signalling: IEEE_OVERFLOW_FLAG
Note: The following floating-point exceptions are signalling: IEEE_OVERFLOW_FLAG
Note: The following floating-point exceptions are signalling: IEEE_OVERFLOW_FLAG
Note: The following floating-point exceptions are signalling: IEEE_OVERFLOW_FLAG
Note: The following floating-point exceptions are signalling: IEEE_OVERFLOW_FLAG
Note: The following floating-point exceptions are signalling: IEEE_OVERFLOW_FLAG
Note: The following floating-point exceptions are signalling: IEEE_OVERFLOW_FLAG
Note: The following floating-point exceptions are signalling: IEEE_OVERFLOW_FLAG
Note: The following floating-point exceptions are signalling: IEEE_OVERFLOW_FLAG
Note: The following floating-point exceptions are signalling: IEEE_OVERFLOW_FLAG
Note: The following floating-point exceptions are signalling: IEEE_OVERFLOW_FLAG
Note: The following floating-point exceptions are signalling: IEEE_OVERFLOW_FLAG
Note: The following floating-point exceptions are signalling: IEEE_OVERFLOW_FLAG
Note: The following floating-point exceptions are signalling: IEEE_OVERFLOW_FLAG
Note: The following floating-point exceptions are signalling: IEEE_OVERFLOW_FLAG
Note: The following floating-point exceptions are signalling: IEEE_OVERFLOW_FLAG
Note: The following floating-point exceptions are signalling: IEEE_OVERFLOW_FLAG
Note: The following floating-point exceptions are signalling: IEEE_OVERFLOW_FLAG
Note: The following floating-point exceptions are signalling: IEEE_OVERFLOW_FLAG
Note: The following floating-point exceptions are signalling: IEEE_OVERFLOW_FLAG
Note: The following floating-point exceptions are signalling: IEEE_OVERFLOW_FLAG
Note: The following floating-point exceptions are signalling: IEEE_OVERFLOW_FLAG
Note: The following floating-point exceptions are signalling: IEEE_OVERFLOW_FLAG
Note: The following floating-point exceptions are signalling: IEEE_OVERFLOW_FLAG
Note: The following floating-point exceptions are signalling: IEEE_OVERFLOW_FLAG
Note: The following floating-point exceptions are signalling: IEEE_OVERFLOW_FLAG
Note: The following floating-point exceptions are signalling: IEEE_OVERFLOW_FLAG
Note: The following floating-point exceptions are signalling: IEEE_OVERFLOW_FLAG
Note: The following floating-point exceptions are signalling: IEEE_OVERFLOW_FLAG
Note: The following floating-point exceptions are signalling: IEEE_OVERFLOW_FLAG
Note: The following floating-point exceptions are signalling: IEEE_OVERFLOW_FLAG
Note: The following floating-point exceptions are signalling: IEEE_OVERFLOW_FLAG
Note: The following floating-point exceptions are signalling: IEEE_OVERFLOW_FLAG
Note: The following floating-point exceptions are signalling: IEEE_OVERFLOW_FLAG
Note: The following floating-point exceptions are signalling: IEEE_OVERFLOW_FLAG
Note: The following floating-point exceptions are signalling: IEEE_OVERFLOW_FLAG
