    3    3   60    1
  0.8144830E+01  0.3039000E-09  0.3039000E-09  0.3055000E-09  0.5000000E-15
   1.0000000000000000E-004
  CAR 
 Name                                    
     12    216     10

  0.3742002E-15  0.3742002E-15  0.3742002E-15  0.2962963E-03
    1       -5.424222   1.000000
    2        4.588535   1.000000
    3        4.935613   1.000000
    4        4.935616   1.000000
    5        6.178950   1.000000
    6       10.035380   0.319665
    7       10.035381   0.319661
    8       12.513811  -0.000000
    9       14.771866  -0.000000
   10       14.771932  -0.000000

  0.6666667E-01  0.3766815E-15  0.3742002E-15  0.1777778E-02
    1       -5.331837   1.000000
    2        4.657291   1.000000
    3        4.720861   1.000000
    4        4.979833   1.000000
    5        5.962201   1.000000
    6        9.990830   0.503345
    7       10.336819  -0.017429
    8       12.021765  -0.000000
    9       12.116071  -0.000000
   10       15.184495  -0.000000

  0.1333333E+00  0.3754153E-15  0.3742002E-15  0.1777778E-02
    1       -5.059298   1.000000
    2        4.121706   1.000000
    3        4.859796   1.000000
    4        5.093594   1.000000
    5        5.472410   1.000000
    6        9.867492   0.929063
    7       11.046546  -0.000000
    8       11.158145  -0.000000
    9       11.500944  -0.000000
   10       15.817670   0.000000

  0.2000000E+00  0.3870416E-15  0.3742002E-15  0.1777778E-02
    1       -4.619733   1.000000
    2        3.312180   1.000000
    3        4.929176   1.000000
    4        5.056652   1.000000
    5        5.225867   1.000000
    6        9.692436   1.027833
    7       10.490307  -0.001192
    8       11.078120  -0.000000
    9       11.815450  -0.000000
   10       16.258018   0.000000

  0.2666667E+00  0.4120044E-15  0.3742002E-15  0.1777778E-02
    1       -4.032774   1.000000
    2        2.396332   1.000000
    3        4.443139   1.000000
    4        5.092044   1.000000
    5        5.318594   1.000000
    6        9.500311   1.001403
    7       10.324375  -0.020152
    8       10.940560  -0.000000
    9       12.276296  -0.000000
   10       16.540826   0.000000

  0.3333333E+00  0.4025434E-15  0.3742002E-15  0.1777778E-02
    1       -3.323155   1.000000
    2        1.436441   1.000000
    3        4.060122   1.000000
    4        4.912829   1.000000
    5        5.345369   1.000000
    6        9.324559   1.000013
    7       10.744444  -0.000001
    8       11.056154  -0.000000
    9       12.265514  -0.000000
   10       16.606237   0.000000

  0.4000000E+00  0.3732510E-15  0.3742002E-15  0.1777778E-02
    1       -2.524245   1.000000
    2        0.471876   1.000000
    3        3.799111   1.000000
    4        4.660772   1.000000
    5        5.327218   1.000000
    6        9.192173   1.000000
    7       11.293713  -0.000000
    8       11.531476  -0.000000
    9       12.045150  -0.000000
   10       16.569848   0.000000

  0.4666667E+00  0.3915456E-15  0.3742002E-15  0.1777778E-02
    1       -1.728708   1.000000
    2       -0.406208   1.000000
    3        3.667365   1.000000
    4        4.495990   1.000000
    5        5.304599   1.000000
    6        9.121432   1.000000
    7       11.477144  -0.000000
    8       11.881927  -0.000000
    9       12.231929  -0.000000
   10       16.401060   0.000000

  0.6666667E-01  0.6666667E-01  0.3742002E-15  0.1777778E-02
    1       -5.149324   1.000000
    2        4.325007   1.000000
    3        4.772751   1.000000
    4        5.068261   1.000000
    5        5.617726   1.000000
    6        9.881391   0.896886
    7       10.862405  -0.000000
    8       11.425270  -0.000000
    9       11.611068  -0.000000
   10       15.752605   0.000000

  0.1333333E+00  0.6666667E-01  0.3742002E-15  0.3555556E-02
    1       -4.792982   1.000000
    2        3.660834   1.000000
    3        4.837717   1.000000
    4        5.128762   1.000000
    5        5.290901   1.000000
    6        9.663711   1.021248
    7       10.670831  -0.000009
    8       11.196427  -0.000000
    9       11.670471  -0.000000
   10       16.309403   0.000000

  0.2000000E+00  0.6666667E-01  0.3742002E-15  0.3555556E-02
    1       -4.278804   1.000000
    2        2.836398   1.000000
    3        4.648110   1.000000
    4        4.748290   1.000000
    5        5.590594   1.000000
    6        9.382881   1.000073
    7       10.141023   0.024778
    8       11.096211  -0.000000
    9       12.421749  -0.000000
   10       16.432057   0.000000

  0.2666667E+00  0.6666667E-01  0.3742002E-15  0.3555556E-02
    1       -3.628301   1.000000
    2        1.929028   1.000000
    3        4.246245   1.000000
    4        4.521176   1.000000
    5        5.798715   1.000000
    6        9.087508   1.000000
    7       10.070547   0.193123
    8       11.310417  -0.000000
    9       12.766420  -0.000000
   10       16.614504   0.000000

  0.3333333E+00  0.6666667E-01  0.3742002E-15  0.3555556E-02
    1       -2.868542   1.000000
    2        0.982715   1.000000
    3        3.951458   1.000000
    4        4.243768   1.000000
    5        5.849489   1.000000
    6        8.827821   1.000000
    7       10.454682  -0.002539
    8       11.711196  -0.000000
    9       12.708081  -0.000000
   10       16.796798   0.000000

  0.4000000E+00  0.6666667E-01  0.3742002E-15  0.3555556E-02
    1       -2.044479   1.000000
    2        0.045219   1.000000
    3        3.773311   1.000000
    4        4.026818   1.000000
    5        5.820441   1.000000
    6        8.649779   1.000000
    7       11.005327  -0.000000
    8       12.087487  -0.000000
    9       12.557072  -0.000000
   10       16.744347   0.000000

  0.4666667E+00  0.6666667E-01  0.3742002E-15  0.1777778E-02
    1       -1.446329   1.000000
    2       -0.591160   1.000000
    3        3.713891   1.000000
    4        3.946216   1.000000
    5        5.800464   1.000000
    6        8.586393   1.000000
    7       11.277545  -0.000000
    8       12.237997  -0.000000
    9       12.492061  -0.000000
   10       16.696434   0.000000

  0.1333333E+00  0.1333333E+00  0.3742002E-15  0.1777778E-02
    1       -4.361326   1.000000
    2        3.050314   1.000000
    3        4.547176   1.000000
    4        4.739097   1.000000
    5        5.697387   1.000000
    6        9.252829   1.000001
    7       10.062300   0.220630
    8       11.182444  -0.000000
    9       12.582608  -0.000000
   10       16.366825   0.000000

  0.2000000E+00  0.1333333E+00  0.3742002E-15  0.3555556E-02
    1       -3.781205   1.000000
    2        2.327478   1.000000
    3        4.104553   1.000000
    4        4.397960   1.000000
    5        6.161435   1.000000
    6        8.748725   1.000000
    7        9.601315   1.009320
    8       11.499894  -0.000000
    9       13.445837  -0.000000
   10       16.144498   0.000000

  0.2666667E+00  0.1333333E+00  0.3742002E-15  0.3555556E-02
    1       -3.074624   1.000000
    2        1.506163   1.000000
    3        3.651215   1.000000
    4        4.144483   1.000000
    5        6.499002   1.000000
    6        8.256824   1.000000
    7        9.562545   1.004861
    8       11.920392  -0.000000
    9       13.839887  -0.000000
   10       16.587077   0.000000

  0.3333333E+00  0.1333333E+00  0.3742002E-15  0.3555556E-02
    1       -2.271121   1.000000
    2        0.611963   1.000000
    3        3.303633   1.000000
    4        3.985367   1.000000
    5        6.603463   1.000000
    6        7.868242   1.000000
    7       10.013982   0.406034
    8       12.132706  -0.000000
    9       13.833526  -0.000000
   10       17.357516   0.000000

  0.4000000E+00  0.1333333E+00  0.3742002E-15  0.3555556E-02
    1       -1.444021   1.000000
    2       -0.267947   1.000000
    3        3.120287   1.000000
    4        3.911124   1.000000
    5        6.594112   1.000000
    6        7.653839   1.000000
    7       10.624462  -0.000036
    8       11.985723  -0.000000
    9       13.767672  -0.000000
   10       17.517722   0.000000

  0.2000000E+00  0.2000000E+00  0.3742002E-15  0.1777778E-02
    1       -3.143122   1.000000
    2        1.788112   1.000000
    3        3.343552   1.000000
    4        4.237963   1.000000
    5        6.818445   1.000000
    6        8.013624   1.000000
    7        9.149581   1.000000
    8       11.994597  -0.000000
    9       14.585839  -0.000000
   10       16.002332   0.000000

  0.2666667E+00  0.2000000E+00  0.3742002E-15  0.3555556E-02
    1       -2.386334   1.000000
    2        1.144382   1.000000
    3        2.685241   1.000000
    4        4.180439   1.000000
    5        7.340596   1.000000
    6        7.340815   1.000000
    7        9.099423   1.000000
    8       12.177512  -0.000000
    9       15.170271  -0.000000
   10       16.531986   0.000000

  0.3333333E+00  0.2000000E+00  0.3742002E-15  0.3555556E-02
    1       -1.543614   1.000000
    2        0.340735   1.000000
    3        2.293596   1.000000
    4        4.194198   1.000000
    5        6.856957   1.000000
    6        7.481750   1.000000
    7        9.648891   1.017957
    8       11.837741  -0.000000
    9       15.177772  -0.000000
   10       17.523220   0.000000

  0.4000000E+00  0.2000000E+00  0.3742002E-15  0.1777778E-02
    1       -0.828775   1.000000
    2       -0.373692   1.000000
    3        2.171747   1.000000
    4        4.212767   1.000000
    5        6.676799   1.000000
    6        7.476675   1.000000
    7       10.154902   0.005873
    8       11.425771  -0.000000
    9       15.153417  -0.000000
   10       17.990370   0.000000

  0.2666667E+00  0.2666667E+00  0.3742002E-15  0.1777778E-02
    1       -1.585146   1.000000
    2        0.786083   1.000000
    3        1.781806   1.000000
    4        4.356400   1.000000
    5        6.515760   1.000000
    6        8.226806   1.000000
    7        8.844117   1.000000
    8       11.794908  -0.000000
    9       16.438100   0.000000
   10       16.543791   0.000000

  0.3333333E+00  0.2666667E+00  0.3742002E-15  0.3555556E-02
    1       -0.709123   1.000000
    2        0.175598   1.000000
    3        1.276881   1.000000
    4        4.591159   1.000000
    5        5.940932   1.000000
    6        8.443554   1.000000
    7        9.406169   1.000139
    8       11.033118  -0.000000
    9       16.430985   0.000000
   10       17.481573   0.000000

  0.3333333E+00  0.3333333E+00  0.3742002E-15  0.5925926E-03
    1        0.075526   1.000000
    2        0.075529   1.000000
    3        0.474196   1.000000
    4        5.176953   1.000000
    5        5.176955   1.000000
    6        9.203175   1.000000
    7        9.203176   1.000000
    8       10.409693  -0.005906
    9       17.224087   0.000000
   10       17.224087   0.000000

  0.3742002E-15  0.3742002E-15  0.6666667E-01  0.5925926E-03
    1       -5.356018   1.000000
    2        4.313786   1.000000
    3        4.989226   1.000000
    4        4.989228   1.000000
    5        6.404510   1.000000
    6        9.825445   0.997531
    7        9.825446   0.997530
    8       12.362788  -0.000000
    9       12.362791  -0.000000
   10       15.726887   0.000000

  0.6666667E-01  0.3766815E-15  0.6666667E-01  0.3555556E-02
    1       -5.264706   1.000000
    2        4.373094   1.000000
    3        4.761815   1.000000
    4        5.028052   1.000000
    5        6.192093   1.000000
    6        9.756195   1.035085
    7       10.095823   0.118582
    8       12.022994  -0.000000
    9       12.111598  -0.000000
   10       15.377935  -0.000000

  0.1333333E+00  0.3754153E-15  0.6666667E-01  0.3555556E-02
    1       -4.995478   1.000000
    2        4.150697   1.000000
    3        4.503705   1.000000
    4        5.122937   1.000000
    5        5.760963   1.000000
    6        9.592443   1.008101
    7       10.484300  -0.001362
    8       11.620754  -0.000000
    9       11.680725  -0.000000
   10       15.811415   0.000000

  0.2000000E+00  0.3870416E-15  0.6666667E-01  0.3555556E-02
    1       -4.561561   1.000000
    2        3.310153   1.000000
    3        4.545327   1.000000
    4        5.218111   1.000000
    5        5.393821   1.000000
    6        9.439948   1.000338
    7       10.283679  -0.029380
    8       11.344960  -0.000000
    9       11.998312  -0.000000
   10       15.996307   0.000000

  0.2666667E+00  0.4120044E-15  0.6666667E-01  0.3555556E-02
    1       -3.982533   1.000000
    2        2.367446   1.000000
    3        4.360435   1.000000
    4        5.170605   1.000000
    5        5.256355   1.000000
    6        9.377653   1.000063
    7       10.210569  -0.032371
    8       11.173806  -0.000000
    9       12.375969  -0.000000
   10       16.166921   0.000000

  0.3333333E+00  0.4025434E-15  0.6666667E-01  0.3555556E-02
    1       -3.282244   1.000000
    2        1.390596   1.000000
    3        4.098477   1.000000
    4        4.928104   1.000000
    5        5.225662   1.000000
    6        9.382264   1.000072
    7       10.590812  -0.000096
    8       11.190870  -0.000000
    9       12.378817  -0.000000
   10       16.784779   0.000000

  0.4000000E+00  0.3732510E-15  0.6666667E-01  0.3555556E-02
    1       -2.490358   1.000000
    2        0.416857   1.000000
    3        3.895285   1.000000
    4        4.668522   1.000000
    5        5.163918   1.000000
    6        9.388415   1.000085
    7       11.134994  -0.000000
    8       11.347109  -0.000000
    9       12.389553  -0.000000
   10       16.586042   0.000000

  0.4666667E+00  0.3915456E-15  0.6666667E-01  0.3555556E-02
    1       -1.680040   1.000000
    2       -0.483287   1.000000
    3        3.789863   1.000000
    4        4.504612   1.000000
    5        5.119030   1.000000
    6        9.383434   1.000074
    7       11.338386  -0.000000
    8       11.493201  -0.000000
    9       12.740604  -0.000000
   10       16.238335   0.000000

  0.6666667E-01  0.6666667E-01  0.6666667E-01  0.3555556E-02
    1       -5.084399   1.000000
    2        4.365677   1.000000
    3        4.468765   1.000000
    4        5.049048   1.000000
    5        5.908563   1.000000
    6        9.573283   1.005879
    7       10.524747  -0.000535
    8       11.572198  -0.000000
    9       11.843618  -0.000000
   10       15.843479   0.000000

  0.1333333E+00  0.6666667E-01  0.6666667E-01  0.7111111E-02
    1       -4.732561   1.000000
    2        3.683758   1.000000
    3        4.556418   1.000000
    4        4.944151   1.000000
    5        5.717184   1.000000
    6        9.259564   1.000001
    7       10.700590  -0.000003
    8       11.210936  -0.000000
    9       11.936486  -0.000000
   10       16.211229   0.000000

  0.2000000E+00  0.6666667E-01  0.6666667E-01  0.7111111E-02
    1       -4.225285   1.000000
    2        2.830367   1.000000
    3        4.444088   1.000000
    4        4.746101   1.000000
    5        5.756689   1.000000
    6        8.987681   1.000000
    7       10.423872  -0.004588
    8       11.152426  -0.000000
    9       12.496791  -0.000000
   10       16.125437   0.000000

  0.2666667E+00  0.6666667E-01  0.6666667E-01  0.7111111E-02
    1       -3.583759   1.000000
    2        1.897555   1.000000
    3        4.187931   1.000000
    4        4.524803   1.000000
    5        5.793708   1.000000
    6        8.897645   1.000000
    7       10.357296  -0.013365
    8       11.288886  -0.000000
    9       12.796403  -0.000000
   10       16.380490   0.000000

  0.3333333E+00  0.6666667E-01  0.6666667E-01  0.7111111E-02
    1       -2.833341   1.000000
    2        0.936149   1.000000
    3        3.974980   1.000000
    4        4.259740   1.000000
    5        5.721167   1.000000
    6        8.918695   1.000000
    7       10.598538  -0.000077
    8       11.573052  -0.000000
    9       12.804277  -0.000000
   10       16.782932   0.000000

  0.4000000E+00  0.6666667E-01  0.6666667E-01  0.7111111E-02
    1       -2.011397   1.000000
    2       -0.012423   1.000000
    3        3.858329   1.000000
    4        4.034844   1.000000
    5        5.620253   1.000000
    6        8.907203   1.000000
    7       11.044265  -0.000000
    8       11.746090  -0.000000
    9       12.874167  -0.000000
   10       16.603936   0.000000

  0.4666667E+00  0.6666667E-01  0.6666667E-01  0.3555556E-02
    1       -1.375259   1.000000
    2       -0.690777   1.000000
    3        3.833209   1.000000
    4        3.937437   1.000000
    5        5.577365   1.000000
    6        8.891619   1.000000
    7       11.299768  -0.000000
    8       11.743003  -0.000000
    9       12.971162  -0.000000
   10       16.457106   0.000000

  0.1333333E+00  0.1333333E+00  0.6666667E-01  0.3555556E-02
    1       -4.306740   1.000000
    2        3.071016   1.000000
    3        4.389370   1.000000
    4        4.593434   1.000000
    5        5.989465   1.000000
    6        8.703597   1.000000
    7       10.597771  -0.000079
    8       11.098890  -0.000000
    9       12.624385  -0.000000
   10       16.219428   0.000000

  0.2000000E+00  0.1333333E+00  0.6666667E-01  0.7111111E-02
    1       -3.734909   1.000000
    2        2.329035   1.000000
    3        3.933571   1.000000
    4        4.416922   1.000000
    5        6.324724   1.000000
    6        8.241322   1.000000
    7       10.172595  -0.012232
    8       11.461971  -0.000000
    9       13.387029  -0.000000
   10       16.015340   0.000000

  0.2666667E+00  0.1333333E+00  0.6666667E-01  0.7111111E-02
    1       -3.038465   1.000000
    2        1.481555   1.000000
    3        3.542738   1.000000
    4        4.223418   1.000000
    5        6.436418   1.000000
    6        8.114226   1.000000
    7        9.968095   0.598789
    8       11.861953  -0.000000
    9       13.765507  -0.000000
   10       16.385691   0.000000

  0.3333333E+00  0.1333333E+00  0.6666667E-01  0.7111111E-02
    1       -2.244128   1.000000
    2        0.570554   1.000000
    3        3.260774   1.000000
    4        4.079617   1.000000
    5        6.286712   1.000000
    6        8.179552   1.000000
    7       10.191500  -0.025065
    8       12.041890  -0.000000
    9       13.825745  -0.000000
   10       16.906389   0.000000

  0.4000000E+00  0.1333333E+00  0.6666667E-01  0.7111111E-02
    1       -1.407866   1.000000
    2       -0.329899   1.000000
    3        3.112050   1.000000
    4        4.010213   1.000000
    5        6.145190   1.000000
    6        8.181275   1.000000
    7       10.687015  -0.000005
    8       11.892793  -0.000000
    9       13.817132  -0.000000
   10       17.092327   0.000000

  0.2000000E+00  0.2000000E+00  0.6666667E-01  0.3555556E-02
    1       -3.106629   1.000000
    2        1.789186   1.000000
    3        3.213131   1.000000
    4        4.286716   1.000000
    5        6.984511   1.000000
    6        7.515703   1.000000
    7        9.718786   1.032998
    8       11.957415  -0.000000
    9       14.419806  -0.000000
   10       15.903459   0.000000

  0.2666667E+00  0.2000000E+00  0.6666667E-01  0.7111111E-02
    1       -2.361510   1.000000
    2        1.126247   1.000000
    3        2.620540   1.000000
    4        4.238217   1.000000
    5        6.807226   1.000000
    6        7.709056   1.000000
    7        9.494442   1.001233
    8       12.139140  -0.000000
    9       15.021498  -0.000000
   10       16.344503   0.000000

  0.3333333E+00  0.2000000E+00  0.6666667E-01  0.7111111E-02
    1       -1.528222   1.000000
    2        0.305515   1.000000
    3        2.279646   1.000000
    4        4.257159   1.000000
    5        6.355400   1.000000
    6        8.029155   1.000000
    7        9.810476   1.012376
    8       11.820128  -0.000000
    9       15.099874  -0.000000
   10       17.165873   0.000000

  0.4000000E+00  0.2000000E+00  0.6666667E-01  0.3555556E-02
    1       -0.775086   1.000000
    2       -0.454843   1.000000
    3        2.173810   1.000000
    4        4.279350   1.000000
    5        6.183564   1.000000
    6        8.070858   1.000000
    7       10.237955  -0.035451
    8       11.432847  -0.000000
    9       15.093611  -0.000000
   10       17.547947   0.000000

  0.2666667E+00  0.2666667E+00  0.6666667E-01  0.3555556E-02
    1       -1.574509   1.000000
    2        0.763130   1.000000
    3        1.759654   1.000000
    4        4.393209   1.000000
    5        6.273544   1.000000
    6        8.358884   1.000000
    7        9.199976   1.000000
    8       11.789436  -0.000000
    9       16.311957   0.000000
   10       16.349222   0.000000

  0.3333333E+00  0.2666667E+00  0.6666667E-01  0.7111111E-02
    1       -0.712746   1.000000
    2        0.144076   1.000000
    3        1.289203   1.000000
    4        4.611738   1.000000
    5        5.770853   1.000000
    6        8.709213   1.000000
    7        9.557043   1.004397
    8       11.060714  -0.000000
    9       16.332046   0.000000
   10       17.286980   0.000000

  0.3333333E+00  0.3333333E+00  0.6666667E-01  0.1185185E-02
    1        0.023292   1.000000
    2        0.023295   1.000000
    3        0.559175   1.000000
    4        5.130414   1.000000
    5        5.130416   1.000000
    6        9.388442   1.000085
    7        9.388443   1.000085
    8       10.439593  -0.003417
    9       17.105279   0.000000
   10       17.105280   0.000000

  0.3742002E-15  0.3742002E-15  0.1333333E+00  0.5925926E-03
    1       -5.155592   1.000000
    2        3.706508   1.000000
    3        5.149655   1.000000
    4        5.149658   1.000000
    5        6.879181   1.000000
    6        9.332390   1.000016
    7        9.332392   1.000016
    8       11.939172  -0.000000
    9       11.939175  -0.000000
   10       15.632979   0.000000

  0.6666667E-01  0.3766815E-15  0.1333333E+00  0.3555556E-02
    1       -5.067665   1.000000
    2        3.758395   1.000000
    3        4.904541   1.000000
    4        5.170732   1.000000
    5        6.634256   1.000000
    6        9.234448   1.000001
    7        9.588002   1.007537
    8       11.831521  -0.000000
    9       11.934585  -0.000000
   10       15.933739   0.000000

  0.1333333E+00  0.3754153E-15  0.1333333E+00  0.3555556E-02
    1       -4.808773   1.000000
    2        3.849614   1.000000
    3        4.284591   1.000000
    4        5.205204   1.000000
    5        6.179617   1.000000
    6        9.060316   1.000000
    7        9.880116   0.900042
    8       11.859321  -0.000000
    9       11.888311  -0.000000
   10       15.942735   0.000000

  0.2000000E+00  0.3870416E-15  0.1333333E+00  0.3555556E-02
    1       -4.392641   1.000000
    2        3.262406   1.000000
    3        4.117962   1.000000
    4        5.187605   1.000000
    5        5.739299   1.000000
    6        9.015275   1.000000
    7        9.855860   0.952255
    8       11.783467  -0.000000
    9       12.309688  -0.000000
   10       15.696341   0.000000

  0.2666667E+00  0.4120044E-15  0.1333333E+00  0.3555556E-02
    1       -3.838788   1.000000
    2        2.286629   1.000000
    3        4.184564   1.000000
    4        5.080871   1.000000
    5        5.336780   1.000000
    6        9.193322   1.000000
    7        9.911734   0.809986
    8       11.655930  -0.000000
    9       12.669655  -0.000000
   10       15.692365   0.000000

  0.3333333E+00  0.4025434E-15  0.1333333E+00  0.3555556E-02
    1       -3.169123   1.000000
    2        1.286073   1.000000
    3        4.178733   1.000000
    4        4.919912   1.000000
    5        4.970572   1.000000
    6        9.526263   1.002424
    7       10.230825  -0.035326
    8       11.557252  -0.000000
    9       12.703807  -0.000000
   10       16.145098   0.000000

  0.4000000E+00  0.3732510E-15  0.1333333E+00  0.3555556E-02
    1       -2.405499   1.000000
    2        0.303795   1.000000
    3        4.138754   1.000000
    4        4.676749   1.000000
    5        4.771106   1.000000
    6        9.853797   0.956018
    7       10.579981  -0.000129
    8       11.525407  -0.000000
    9       12.860679  -0.000000
   10       16.275802   0.000000

  0.4666667E+00  0.3915456E-15  0.1333333E+00  0.3555556E-02
    1       -1.574640   1.000000
    2       -0.634910   1.000000
    3        4.109892   1.000000
    4        4.511060   1.000000
    5        4.684811   1.000000
    6       10.039032   0.305501
    7       10.711437  -0.000002
    8       11.543647  -0.000000
    9       13.297229  -0.000000
   10       15.859167   0.000000

  0.6666667E-01  0.6666667E-01  0.1333333E+00  0.3555556E-02
    1       -4.894226   1.000000
    2        3.843743   1.000000
    3        4.485131   1.000000
    4        5.133264   1.000000
    5        6.366006   1.000000
    6        8.967147   1.000000
    7        9.988717   0.512287
    8       11.650699  -0.000000
    9       12.016025  -0.000000
   10       16.395724   0.000000

  0.1333333E+00  0.6666667E-01  0.1333333E+00  0.7111111E-02
    1       -4.556539   1.000000
    2        3.699431   1.000000
    3        4.012821   1.000000
    4        4.958975   1.000000
    5        6.190143   1.000000
    6        8.609086   1.000000
    7       10.298624  -0.026067
    8       11.561986  -0.000000
    9       12.261721  -0.000000
   10       16.086075   0.000000

  0.2000000E+00  0.6666667E-01  0.1333333E+00  0.7111111E-02
    1       -4.071010   1.000000
    2        2.797732   1.000000
    3        4.069764   1.000000
    4        4.726881   1.000000
    5        6.029471   1.000000
    6        8.480144   1.000000
    7       10.391971  -0.007949
    8       11.537376  -0.000000
    9       12.707021  -0.000000
   10       15.758410   0.000000

  0.2666667E+00  0.6666667E-01  0.1333333E+00  0.7111111E-02
    1       -3.458227   1.000000
    2        1.818404   1.000000
    3        4.051812   1.000000
    4        4.504902   1.000000
    5        5.752750   1.000000
    6        8.703251   1.000000
    7       10.587081  -0.000106
    8       11.469077  -0.000000
    9       12.960836  -0.000000
   10       15.902336   0.000000

  0.3333333E+00  0.6666667E-01  0.1333333E+00  0.7111111E-02
    1       -2.739883   1.000000
    2        0.834881   1.000000
    3        3.983181   1.000000
    4        4.312992   1.000000
    5        5.439698   1.000000
    6        9.122026   1.000000
    7       10.861840  -0.000000
    8       11.429329  -0.000000
    9       13.046821  -0.000000
   10       16.291089   0.000000

  0.4000000E+00  0.6666667E-01  0.1333333E+00  0.7111111E-02
    1       -1.937741   1.000000
    2       -0.125025   1.000000
    3        3.915572   1.000000
    4        4.186024   1.000000
    5        5.207331   1.000000
    6        9.455617   1.000499
    7       11.109108  -0.000000
    8       11.407114  -0.000000
    9       13.285810  -0.000000
   10       16.193989   0.000000

  0.4666667E+00  0.6666667E-01  0.1333333E+00  0.3555556E-02
    1       -1.167518   1.000000
    2       -0.947431   1.000000
    3        3.885933   1.000000
    4        4.145307   1.000000
    5        5.122546   1.000000
    6        9.563762   1.004968
    7       11.251953  -0.000000
    8       11.364409  -0.000000
    9       13.478413  -0.000000
   10       15.989386   0.000000

  0.1333333E+00  0.1333333E+00  0.1333333E+00  0.3555556E-02
    1       -4.149044   1.000000
    2        3.130236   1.000000
    3        3.858205   1.000000
    4        4.580541   1.000000
    5        6.509715   1.000000
    6        7.941963   1.000000
    7       10.854010  -0.000000
    8       11.260983  -0.000000
    9       12.761124  -0.000000
   10       16.007340   0.000000

  0.2000000E+00  0.1333333E+00  0.1333333E+00  0.7111111E-02
    1       -3.603405   1.000000
    2        2.329502   1.000000
    3        3.595754   1.000000
    4        4.419861   1.000000
    5        6.602669   1.000000
    6        7.680228   1.000000
    7       10.935904  -0.000000
    8       11.360904  -0.000000
    9       13.334700  -0.000000
   10       15.755038   0.000000

  0.2666667E+00  0.1333333E+00  0.1333333E+00  0.7111111E-02
    1       -2.939773   1.000000
    2        1.421625   1.000000
    3        3.351159   1.000000
    4        4.332418   1.000000
    5        6.182565   1.000000
    6        8.135037   1.000000
    7       10.741526  -0.000001
    8       11.690304  -0.000000
    9       13.682101  -0.000000
   10       15.982351   0.000000

  0.3333333E+00  0.1333333E+00  0.1333333E+00  0.7111111E-02
    1       -2.179265   1.000000
    2        0.483841   1.000000
    3        3.176041   1.000000
    4        4.278326   1.000000
    5        5.754192   1.000000
    6        8.709178   1.000000
    7       10.693754  -0.000004
    8       11.812133  -0.000000
    9       13.848879  -0.000000
   10       16.361386   0.000000

  0.4000000E+00  0.1333333E+00  0.1333333E+00  0.7111111E-02
    1       -1.343956   1.000000
    2       -0.442841   1.000000
    3        3.083627   1.000000
    4        4.262618   1.000000
    5        5.504237   1.000000
    6        9.033444   1.000000
    7       10.880175  -0.000000
    8       11.690997  -0.000000
    9       13.942899  -0.000000
   10       16.486276   0.000000

  0.2000000E+00  0.2000000E+00  0.1333333E+00  0.3555556E-02
    1       -3.006177   1.000000
    2        1.790444   1.000000
    3        2.947987   1.000000
    4        4.356644   1.000000
    5        6.789117   1.000000
    6        7.424392   1.000000
    7       10.634394  -0.000027
    8       11.829865  -0.000000
    9       14.134238  -0.000000
   10       15.683014   0.000000

  0.2666667E+00  0.2000000E+00  0.1333333E+00  0.7111111E-02
    1       -2.299102   1.000000
    2        1.079522   1.000000
    3        2.491647   1.000000
    4        4.356431   1.000000
    5        6.194337   1.000000
    6        8.138656   1.000000
    7       10.327484  -0.019457
    8       12.024313  -0.000000
    9       14.729793  -0.000000
   10       15.997678   0.000000
