   23   23   60    1
  0.8498952E+01  0.6078000E-09  0.6078000E-09  0.6110000E-09  0.5000000E-15
   1.0000000000000000E-004
  CAR 
 Name                                    
     88    125     56

  0.3742002E-15  0.3742002E-15  0.3742002E-15  0.1371742E-02
    1       -6.112180   1.000000
    2       -3.847697   1.000000
    3       -3.155372   1.000000
    4       -2.559574   1.000000
    5       -2.398466   1.000000
    6       -2.282510   1.000000
    7       -2.274383   1.000000
    8       -1.923017   1.000000
    9       -1.856475   1.000000
   10       -1.665874   1.000000
   11       -1.613829   1.000000
   12       -0.295112   1.000000
   13        0.085622   1.000000
   14        0.212200   1.000000
   15        0.280912   1.000000
   16        1.792424   1.000000
   17        2.305488   1.000000
   18        2.340804   1.000000
   19        2.510215   1.000000
   20        2.785588   1.000000
   21        3.005020   1.000000
   22        3.206933   1.000000
   23        3.240065   1.000000
   24        3.720893   1.000000
   25        3.764021   1.000000
   26        3.950741   1.000000
   27        4.149144   1.000000
   28        4.209809   1.000000
   29        4.253987   1.000000
   30        4.431459   1.000000
   31        4.467837   1.000000
   32        4.637019   1.000000
   33        4.722801   1.000000
   34        4.781898   1.000000
   35        4.799366   1.000000
   36        5.639373   1.000000
   37        5.867760   1.000000
   38        6.485289   1.000000
   39        6.563134   1.000000
   40        6.920984   1.000000
   41        6.937426   1.000000
   42        7.165895   1.000000
   43        7.425283   1.000000
   44        7.852020   1.000000
   45        8.068492   1.006658
   46        8.171022   1.027971
   47        8.941303  -0.000000
   48        9.388856  -0.000000
   49        9.389742  -0.000000
   50        9.467312  -0.000000
   51        9.479499  -0.000000
   52        9.651357  -0.000000
   53        9.747653  -0.000000
   54        9.754092  -0.000000
   55        9.982927  -0.000000
   56       10.044934  -0.000000

  0.1111111E+00  0.3745146E-15  0.3742002E-15  0.5486968E-02
    1       -6.053237   1.000000
    2       -3.829311   1.000000
    3       -3.155475   1.000000
    4       -2.783880   1.000000
    5       -2.562677   1.000000
    6       -2.445520   1.000000
    7       -2.425514   1.000000
    8       -2.212564   1.000000
    9       -1.516555   1.000000
   10       -1.401488   1.000000
   11       -1.087723   1.000000
   12       -0.210061   1.000000
   13        0.062814   1.000000
   14        0.215895   1.000000
   15        0.396551   1.000000
   16        1.839451   1.000000
   17        2.336096   1.000000
   18        2.336481   1.000000
   19        2.540764   1.000000
   20        2.768893   1.000000
   21        2.921498   1.000000
   22        3.060443   1.000000
   23        3.252339   1.000000
   24        3.460091   1.000000
   25        3.681590   1.000000
   26        3.970084   1.000000
   27        4.121568   1.000000
   28        4.179942   1.000000
   29        4.225114   1.000000
   30        4.387312   1.000000
   31        4.421805   1.000000
   32        4.549586   1.000000
   33        4.653560   1.000000
   34        4.922304   1.000000
   35        5.151781   1.000000
   36        5.649862   1.000000
   37        5.812209   1.000000
   38        5.913700   1.000000
   39        5.985848   1.000000
   40        7.092082   1.000000
   41        7.450972   1.000000
   42        7.456518   1.000000
   43        7.561027   1.000000
   44        7.692730   1.000000
   45        8.108604   1.020582
   46        8.182259   1.014340
   47        8.955803  -0.000000
   48        9.327796  -0.000000
   49        9.362422  -0.000000
   50        9.407465  -0.000000
   51        9.470122  -0.000000
   52        9.632384  -0.000000
   53        9.694211  -0.000000
   54        9.740928  -0.000000
   55        9.896514  -0.000000
   56        9.963994  -0.000000

  0.2222222E+00  0.3685699E-15  0.3742002E-15  0.5486968E-02
    1       -5.878509   1.000000
    2       -3.773499   1.000000
    3       -3.462990   1.000000
    4       -3.171899   1.000000
    5       -2.665130   1.000000
    6       -2.646422   1.000000
    7       -2.465300   1.000000
    8       -2.438683   1.000000
    9       -1.040565   1.000000
   10       -0.947443   1.000000
   11       -0.323084   1.000000
   12       -0.071473   1.000000
   13        0.048479   1.000000
   14        0.203778   1.000000
   15        0.814169   1.000000
   16        1.957789   1.000000
   17        2.314341   1.000000
   18        2.335277   1.000000
   19        2.497315   1.000000
   20        2.542688   1.000000
   21        2.635532   1.000000
   22        2.824744   1.000000
   23        3.166156   1.000000
   24        3.388717   1.000000
   25        3.446694   1.000000
   26        3.976592   1.000000
   27        3.994326   1.000000
   28        4.115225   1.000000
   29        4.211007   1.000000
   30        4.318702   1.000000
   31        4.388780   1.000000
   32        4.516853   1.000000
   33        4.619868   1.000000
   34        4.924515   1.000000
   35        5.082011   1.000000
   36        5.353730   1.000000
   37        5.463569   1.000000
   38        5.690929   1.000000
   39        6.201513   1.000000
   40        6.874030   1.000000
   41        7.242429   1.000000
   42        7.557008   1.000000
   43        7.818222   1.000000
   44        8.106441   1.019612
   45        8.350754   0.018803
   46        8.525588  -0.001080
   47        8.994568  -0.000000
   48        9.056294  -0.000000
   49        9.126108  -0.000000
   50        9.230341  -0.000000
   51        9.446530  -0.000000
   52        9.540678  -0.000000
   53        9.598083  -0.000000
   54        9.662202  -0.000000
   55        9.818933  -0.000000
   56        9.889820  -0.000000

  0.3333333E+00  0.4145315E-15  0.3742002E-15  0.5486968E-02
    1       -5.595286   1.000000
    2       -4.098458   1.000000
    3       -3.679279   1.000000
    4       -3.248730   1.000000
    5       -2.810648   1.000000
    6       -2.779140   1.000000
    7       -2.631264   1.000000
    8       -2.373365   1.000000
    9       -0.531577   1.000000
   10       -0.420828   1.000000
   11       -0.232632   1.000000
   12        0.184093   1.000000
   13        0.334215   1.000000
   14        0.569144   1.000000
   15        1.424363   1.000000
   16        1.859990   1.000000
   17        1.941298   1.000000
   18        2.094579   1.000000
   19        2.114163   1.000000
   20        2.282281   1.000000
   21        2.747248   1.000000
   22        2.785902   1.000000
   23        3.016496   1.000000
   24        3.192151   1.000000
   25        3.605703   1.000000
   26        3.859829   1.000000
   27        3.867242   1.000000
   28        4.031352   1.000000
   29        4.070341   1.000000
   30        4.194474   1.000000
   31        4.249151   1.000000
   32        4.375696   1.000000
   33        4.615139   1.000000
   34        4.697508   1.000000
   35        4.969536   1.000000
   36        5.117040   1.000000
   37        5.179116   1.000000
   38        6.210288   1.000000
   39        6.376431   1.000000
   40        6.743617   1.000000
   41        6.901437   1.000000
   42        7.681926   1.000000
   43        7.814488   1.000000
   44        8.118602   1.025183
   45        8.582876  -0.000056
   46        8.635021  -0.000002
   47        8.965819  -0.000000
   48        9.014860  -0.000000
   49        9.055263  -0.000000
   50        9.124941  -0.000000
   51        9.343872  -0.000000
   52        9.417621  -0.000000
   53        9.518800  -0.000000
   54        9.667694  -0.000000
   55        9.734844  -0.000000
   56        9.800372  -0.000000

  0.4444444E+00  0.3784822E-15  0.3742002E-15  0.5486968E-02
    1       -5.231539   1.000000
    2       -4.641099   1.000000
    3       -3.548574   1.000000
    4       -3.392703   1.000000
    5       -2.895384   1.000000
    6       -2.821439   1.000000
    7       -2.713747   1.000000
    8       -2.322869   1.000000
    9       -0.339039   1.000000
   10       -0.101424   1.000000
   11        0.057080   1.000000
   12        0.170351   1.000000
   13        0.819407   1.000000
   14        1.254486   1.000000
   15        1.362599   1.000000
   16        1.451532   1.000000
   17        1.606252   1.000000
   18        2.074052   1.000000
   19        2.192686   1.000000
   20        2.221955   1.000000
   21        2.297729   1.000000
   22        2.945536   1.000000
   23        3.095178   1.000000
   24        3.130329   1.000000
   25        3.247697   1.000000
   26        3.646876   1.000000
   27        3.772769   1.000000
   28        3.910370   1.000000
   29        4.089260   1.000000
   30        4.126095   1.000000
   31        4.237007   1.000000
   32        4.285581   1.000000
   33        4.576395   1.000000
   34        4.697438   1.000000
   35        4.888666   1.000000
   36        5.137072   1.000000
   37        5.153918   1.000000
   38        6.229862   1.000000
   39        6.376199   1.000000
   40        6.607956   1.000000
   41        7.318088   1.000000
   42        7.756048   1.000000
   43        7.800665   1.000000
   44        8.078128   1.009107
   45        8.124363   1.027802
   46        8.191743   0.995662
   47        8.884427  -0.000000
   48        9.094316  -0.000000
   49        9.242136  -0.000000
   50        9.273900  -0.000000
   51        9.376450  -0.000000
   52        9.404364  -0.000000
   53        9.488217  -0.000000
   54        9.612486  -0.000000
   55        9.665424  -0.000000
   56        9.698538  -0.000000

  0.1111111E+00  0.1111111E+00  0.3742002E-15  0.2743484E-02
    1       -5.935694   1.000000
    2       -3.790597   1.000000
    3       -3.179503   1.000000
    4       -3.152022   1.000000
    5       -2.935513   1.000000
    6       -2.636630   1.000000
    7       -2.455755   1.000000
    8       -1.927053   1.000000
    9       -1.653229   1.000000
   10       -0.707546   1.000000
   11       -0.656676   1.000000
   12       -0.122398   1.000000
   13       -0.036240   1.000000
   14        0.350002   1.000000
   15        0.642627   1.000000
   16        1.893750   1.000000
   17        2.286719   1.000000
   18        2.342232   1.000000
   19        2.460990   1.000000
   20        2.643744   1.000000
   21        2.824669   1.000000
   22        2.968883   1.000000
   23        3.257878   1.000000
   24        3.370406   1.000000
   25        3.533705   1.000000
   26        3.766358   1.000000
   27        4.030383   1.000000
   28        4.170703   1.000000
   29        4.288540   1.000000
   30        4.349175   1.000000
   31        4.354856   1.000000
   32        4.525648   1.000000
   33        4.585032   1.000000
   34        5.230308   1.000000
   35        5.263679   1.000000
   36        5.292210   1.000000
   37        5.390385   1.000000
   38        5.565008   1.000000
   39        6.128988   1.000000
   40        6.888187   1.000000
   41        7.374134   1.000000
   42        7.565127   1.000000
   43        7.913716   1.000002
   44        7.985087   1.000171
   45        8.069138   1.006805
   46        8.486271  -0.005277
   47        8.983472  -0.000000
   48        9.201891  -0.000000
   49        9.238911  -0.000000
   50        9.242009  -0.000000
   51        9.458170  -0.000000
   52        9.581989  -0.000000
   53        9.598945  -0.000000
   54        9.675898  -0.000000
   55        9.839497  -0.000000
   56        9.843199  -0.000000

  0.2222222E+00  0.1111111E+00  0.3742002E-15  0.5486968E-02
    1       -5.705762   1.000000
    2       -3.771809   1.000000
    3       -3.715605   1.000000
    4       -3.233280   1.000000
    5       -3.173392   1.000000
    6       -2.832296   1.000000
    7       -2.332856   1.000000
    8       -2.000453   1.000000
    9       -1.236250   1.000000
   10       -0.375207   1.000000
   11       -0.216158   1.000000
   12        0.073623   1.000000
   13        0.322103   1.000000
   14        0.450654   1.000000
   15        1.140307   1.000000
   16        1.773362   1.000000
   17        2.008626   1.000000
   18        2.245944   1.000000
   19        2.321355   1.000000
   20        2.571743   1.000000
   21        2.768667   1.000000
   22        2.780494   1.000000
   23        3.128277   1.000000
   24        3.189060   1.000000
   25        3.568561   1.000000
   26        3.606915   1.000000
   27        3.954503   1.000000
   28        4.073702   1.000000
   29        4.176519   1.000000
   30        4.253256   1.000000
   31        4.378376   1.000000
   32        4.533669   1.000000
   33        4.565670   1.000000
   34        4.673078   1.000000
   35        5.003477   1.000000
   36        5.119694   1.000000
   37        5.347996   1.000000
   38        5.799673   1.000000
   39        6.505001   1.000000
   40        6.695096   1.000000
   41        6.932401   1.000000
   42        7.711635   1.000000
   43        7.875972   1.000000
   44        8.151482   1.035458
   45        8.525887  -0.001065
   46        8.798495  -0.000000
   47        8.891408  -0.000000
   48        9.031420  -0.000000
   49        9.086501  -0.000000
   50        9.150322  -0.000000
   51        9.409757  -0.000000
   52        9.420770  -0.000000
   53        9.485233  -0.000000
   54        9.532429  -0.000000
   55        9.757753  -0.000000
   56        9.913604  -0.000000

  0.3333333E+00  0.1111111E+00  0.3742002E-15  0.5486968E-02
    1       -5.375519   1.000000
    2       -4.358624   1.000000
    3       -3.605032   1.000000
    4       -3.380415   1.000000
    5       -3.283318   1.000000
    6       -2.932490   1.000000
    7       -2.215099   1.000000
    8       -2.112612   1.000000
    9       -0.675777   1.000000
   10       -0.583155   1.000000
   11        0.241857   1.000000
   12        0.498464   1.000000
   13        0.645551   1.000000
   14        0.950758   1.000000
   15        1.124117   1.000000
   16        1.793386   1.000000
   17        1.880368   1.000000
   18        2.118544   1.000000
   19        2.141107   1.000000
   20        2.243747   1.000000
   21        2.509871   1.000000
   22        2.747513   1.000000
   23        2.846103   1.000000
   24        3.337447   1.000000
   25        3.499548   1.000000
   26        3.682076   1.000000
   27        3.820246   1.000000
   28        3.842354   1.000000
   29        3.924810   1.000000
   30        4.114856   1.000000
   31        4.280050   1.000000
   32        4.302019   1.000000
   33        4.672792   1.000000
   34        4.707709   1.000000
   35        4.838150   1.000000
   36        5.046027   1.000000
   37        5.332202   1.000000
   38        6.205269   1.000000
   39        6.330401   1.000000
   40        6.488639   1.000000
   41        7.161449   1.000000
   42        7.758409   1.000000
   43        7.869691   1.000000
   44        8.192879   0.992924
   45        8.348186   0.026438
   46        8.445083  -0.018089
   47        8.889223  -0.000000
   48        8.970312  -0.000000
   49        9.094356  -0.000000
   50        9.221271  -0.000000
   51        9.348550  -0.000000
   52        9.437635  -0.000000
   53        9.462448  -0.000000
   54        9.559356  -0.000000
   55        9.654770  -0.000000
   56        9.703899  -0.000000

  0.4444444E+00  0.1111111E+00  0.3742002E-15  0.5486968E-02
    1       -5.068288   1.000000
    2       -4.753608   1.000000
    3       -3.465299   1.000000
    4       -3.452691   1.000000
    5       -3.428092   1.000000
    6       -2.938764   1.000000
    7       -2.163743   1.000000
    8       -2.153229   1.000000
    9       -0.659842   1.000000
   10       -0.325271   1.000000
   11        0.489777   1.000000
   12        0.515545   1.000000
   13        0.714200   1.000000
   14        1.021166   1.000000
   15        1.438902   1.000000
   16        1.546554   1.000000
   17        1.848662   1.000000
   18        2.058917   1.000000
   19        2.086029   1.000000
   20        2.296765   1.000000
   21        2.429303   1.000000
   22        2.631536   1.000000
   23        2.756634   1.000000
   24        3.173163   1.000000
   25        3.499002   1.000000
   26        3.579536   1.000000
   27        3.684482   1.000000
   28        3.813234   1.000000
   29        3.980362   1.000000
   30        4.046514   1.000000
   31        4.263959   1.000000
   32        4.275123   1.000000
   33        4.454356   1.000000
   34        4.831727   1.000000
   35        5.000917   1.000000
   36        5.200346   1.000000
   37        5.207518   1.000000
   38        6.129172   1.000000
   39        6.249269   1.000000
   40        6.502993   1.000000
   41        7.622629   1.000000
   42        7.692693   1.000000
   43        7.908098   1.000001
   44        8.042855   1.002576
   45        8.146381   1.035074
   46        8.204590   0.957890
   47        8.806189  -0.000000
   48        9.115106  -0.000000
   49        9.148543  -0.000000
   50        9.158323  -0.000000
   51        9.309521  -0.000000
   52        9.364939  -0.000000
   53        9.427696  -0.000000
   54        9.481516  -0.000000
   55        9.575401  -0.000000
   56        9.836311  -0.000000

 -0.4444444E+00  0.1111111E+00  0.3742002E-15  0.5486968E-02
    1       -5.379413   1.000000
    2       -4.354556   1.000000
    3       -3.606825   1.000000
    4       -3.380450   1.000000
    5       -3.318280   1.000000
    6       -2.904107   1.000000
    7       -2.206692   1.000000
    8       -2.117092   1.000000
    9       -0.665149   1.000000
   10       -0.566913   1.000000
   11        0.241606   1.000000
   12        0.504961   1.000000
   13        0.630944   1.000000
   14        0.892888   1.000000
   15        1.194584   1.000000
   16        1.679097   1.000000
   17        1.839316   1.000000
   18        2.157645   1.000000
   19        2.212797   1.000000
   20        2.326927   1.000000
   21        2.469486   1.000000
   22        2.783377   1.000000
   23        2.784325   1.000000
   24        3.305242   1.000000
   25        3.516725   1.000000
   26        3.682316   1.000000
   27        3.689291   1.000000
   28        3.819080   1.000000
   29        3.862835   1.000000
   30        4.081438   1.000000
   31        4.309552   1.000000
   32        4.311616   1.000000
   33        4.738055   1.000000
   34        4.768869   1.000000
   35        4.943722   1.000000
   36        5.167315   1.000000
   37        5.234653   1.000000
   38        6.152890   1.000000
   39        6.443262   1.000000
   40        6.449862   1.000000
   41        7.245407   1.000000
   42        7.708757   1.000000
   43        7.801031   1.000000
   44        8.199163   0.975714
   45        8.368151  -0.017906
   46        8.446166  -0.017625
   47        8.864027  -0.000000
   48        8.980606  -0.000000
   49        9.091583  -0.000000
   50        9.234480  -0.000000
   51        9.352953  -0.000000
   52        9.432140  -0.000000
   53        9.488135  -0.000000
   54        9.566636  -0.000000
   55        9.667133  -0.000000
   56        9.690299  -0.000000

 -0.3333333E+00  0.1111111E+00  0.3742002E-15  0.5486968E-02
    1       -5.709090   1.000000
    2       -3.768242   1.000000
    3       -3.722734   1.000000
    4       -3.233251   1.000000
    5       -3.211855   1.000000
    6       -2.819833   1.000000
    7       -2.292326   1.000000
    8       -2.010355   1.000000
    9       -1.218106   1.000000
   10       -0.355908   1.000000
   11       -0.227989   1.000000
   12        0.070016   1.000000
   13        0.302363   1.000000
   14        0.456646   1.000000
   15        1.065714   1.000000
   16        1.826000   1.000000
   17        2.108048   1.000000
   18        2.303188   1.000000
   19        2.348151   1.000000
   20        2.559700   1.000000
   21        2.630281   1.000000
   22        2.659612   1.000000
   23        3.146350   1.000000
   24        3.204880   1.000000
   25        3.455707   1.000000
   26        3.644941   1.000000
   27        3.910304   1.000000
   28        3.957933   1.000000
   29        4.174344   1.000000
   30        4.247441   1.000000
   31        4.375466   1.000000
   32        4.568349   1.000000
   33        4.616359   1.000000
   34        4.771203   1.000000
   35        5.016097   1.000000
   36        5.273121   1.000000
   37        5.299132   1.000000
   38        5.894872   1.000000
   39        6.512152   1.000000
   40        6.813953   1.000000
   41        6.910218   1.000000
   42        7.631943   1.000000
   43        7.783773   1.000000
   44        8.163081   1.033074
   45        8.539449  -0.000566
   46        8.828023  -0.000000
   47        8.893092  -0.000000
   48        9.036662  -0.000000
   49        9.059324  -0.000000
   50        9.144357  -0.000000
   51        9.354607  -0.000000
   52        9.473891  -0.000000
   53        9.490242  -0.000000
   54        9.567507  -0.000000
   55        9.737733  -0.000000
   56        9.983036  -0.000000

 -0.2222222E+00  0.1111111E+00  0.3742002E-15  0.5486968E-02
    1       -5.937913   1.000000
    2       -3.797170   1.000000
    3       -3.177871   1.000000
    4       -3.169564   1.000000
    5       -2.935706   1.000000
    6       -2.705308   1.000000
    7       -2.348914   1.000000
    8       -1.938984   1.000000
    9       -1.629902   1.000000
   10       -0.758647   1.000000
   11       -0.620233   1.000000
   12       -0.106827   1.000000
   13       -0.050109   1.000000
   14        0.322248   1.000000
   15        0.622092   1.000000
   16        1.971940   1.000000
   17        2.389682   1.000000
   18        2.405416   1.000000
   19        2.495891   1.000000
   20        2.511115   1.000000
   21        2.665154   1.000000
   22        3.072879   1.000000
   23        3.176940   1.000000
   24        3.291780   1.000000
   25        3.416209   1.000000
   26        3.872157   1.000000
   27        3.921926   1.000000
   28        4.090629   1.000000
   29        4.236606   1.000000
   30        4.347208   1.000000
   31        4.492183   1.000000
   32        4.543517   1.000000
   33        4.671024   1.000000
   34        5.200175   1.000000
   35        5.227916   1.000000
   36        5.348346   1.000000
   37        5.469783   1.000000
   38        5.697624   1.000000
   39        6.120053   1.000000
   40        7.028907   1.000000
   41        7.396070   1.000000
   42        7.442450   1.000000
   43        7.841992   1.000000
   44        7.987720   1.000197
   45        8.050898   1.003532
   46        8.494940  -0.003842
   47        8.982306  -0.000000
   48        9.203390  -0.000000
   49        9.223979  -0.000000
   50        9.242332  -0.000000
   51        9.427722  -0.000000
   52        9.597262  -0.000000
   53        9.616147  -0.000000
   54        9.660765  -0.000000
   55        9.818766  -0.000000
   56        9.927423  -0.000000

 -0.1111111E+00  0.1111111E+00  0.3742002E-15  0.2743484E-02
    1       -6.054016   1.000000
    2       -3.831885   1.000000
    3       -3.159625   1.000000
    4       -2.780747   1.000000
    5       -2.626002   1.000000
    6       -2.452770   1.000000
    7       -2.367500   1.000000
    8       -2.174955   1.000000
    9       -1.525739   1.000000
   10       -1.413223   1.000000
   11       -1.081187   1.000000
   12       -0.214765   1.000000
   13        0.109240   1.000000
   14        0.132687   1.000000
   15        0.420124   1.000000
   16        1.868497   1.000000
   17        2.348012   1.000000
   18        2.388866   1.000000
   19        2.478655   1.000000
   20        2.726484   1.000000
   21        2.896859   1.000000
   22        3.223337   1.000000
   23        3.245153   1.000000
   24        3.389496   1.000000
   25        3.532241   1.000000
   26        3.929223   1.000000
   27        4.126535   1.000000
   28        4.175389   1.000000
   29        4.242593   1.000000
   30        4.315806   1.000000
   31        4.475611   1.000000
   32        4.627322   1.000000
   33        4.638302   1.000000
   34        5.078242   1.000000
   35        5.096202   1.000000
   36        5.648125   1.000000
   37        5.800039   1.000000
   38        5.911048   1.000000
   39        6.014330   1.000000
   40        7.226158   1.000000
   41        7.324337   1.000000
   42        7.499098   1.000000
   43        7.540251   1.000000
   44        7.703642   1.000000
   45        8.028929   1.001437
   46        8.217262   0.904964
   47        8.955761  -0.000000
   48        9.325693  -0.000000
   49        9.364709  -0.000000
   50        9.393933  -0.000000
   51        9.464497  -0.000000
   52        9.636292  -0.000000
   53        9.690416  -0.000000
   54        9.754901  -0.000000
   55        9.842295  -0.000000
   56       10.040331  -0.000000

  0.2222222E+00  0.2222222E+00  0.3742002E-15  0.2743484E-02
    1       -5.426425   1.000000
    2       -4.096324   1.000000
    3       -3.734643   1.000000
    4       -3.623625   1.000000
    5       -3.176751   1.000000
    6       -3.065636   1.000000
    7       -2.116091   1.000000
    8       -1.397973   1.000000
    9       -1.387274   1.000000
   10       -0.750267   1.000000
   11        0.473770   1.000000
   12        0.508371   1.000000
   13        0.757696   1.000000
   14        0.787945   1.000000
   15        1.041872   1.000000
   16        1.536054   1.000000
   17        2.101439   1.000000
   18        2.228649   1.000000
   19        2.241845   1.000000
   20        2.295605   1.000000
   21        2.531905   1.000000
   22        2.811436   1.000000
   23        2.874985   1.000000
   24        3.255373   1.000000
   25        3.318638   1.000000
   26        3.622934   1.000000
   27        3.816192   1.000000
   28        3.954988   1.000000
   29        3.979759   1.000000
   30        4.002340   1.000000
   31        4.308190   1.000000
   32        4.397678   1.000000
   33        4.618703   1.000000
   34        4.715415   1.000000
   35        4.927082   1.000000
   36        4.944769   1.000000
   37        5.538200   1.000000
   38        5.946366   1.000000
   39        6.298243   1.000000
   40        6.545890   1.000000
   41        7.107418   1.000000
   42        7.719446   1.000000
   43        7.929132   1.000006
   44        8.348987   0.023992
   45        8.522247  -0.001253
   46        8.694391  -0.000000
   47        8.731008  -0.000000
   48        8.806913  -0.000000
   49        9.089883  -0.000000
   50        9.146714  -0.000000
   51        9.190061  -0.000000
   52        9.436854  -0.000000
   53        9.463119  -0.000000
   54        9.633088  -0.000000
   55        9.679848  -0.000000
   56        9.716137  -0.000000

  0.3333333E+00  0.2222222E+00  0.3742002E-15  0.5486968E-02
    1       -5.063847   1.000000
    2       -4.546423   1.000000
    3       -3.924262   1.000000
    4       -3.501041   1.000000
    5       -3.317486   1.000000
    6       -3.133986   1.000000
    7       -1.906741   1.000000
    8       -1.475105   1.000000
    9       -1.036067   1.000000
   10       -0.796576   1.000000
   11        0.343480   1.000000
   12        0.856237   1.000000
   13        1.000753   1.000000
   14        1.036578   1.000000
   15        1.364089   1.000000
   16        1.692080   1.000000
   17        1.973175   1.000000
   18        2.085750   1.000000
   19        2.112957   1.000000
   20        2.277580   1.000000
   21        2.469161   1.000000
   22        2.528835   1.000000
   23        2.531414   1.000000
   24        3.328226   1.000000
   25        3.378863   1.000000
   26        3.470008   1.000000
   27        3.586635   1.000000
   28        3.743187   1.000000
   29        3.848713   1.000000
   30        4.079926   1.000000
   31        4.210553   1.000000
   32        4.346904   1.000000
   33        4.364592   1.000000
   34        4.857080   1.000000
   35        5.195814   1.000000
   36        5.202485   1.000000
   37        5.384981   1.000000
   38        5.994931   1.000000
   39        6.177971   1.000000
   40        6.228301   1.000000
   41        7.597286   1.000000
   42        7.677969   1.000000
   43        8.166871   1.031048
   44        8.320328   0.150885
   45        8.361245  -0.006281
   46        8.422814  -0.028189
   47        8.689749  -0.000000
   48        8.861441  -0.000000
   49        8.878430  -0.000000
   50        8.991751  -0.000000
   51        9.153773  -0.000000
   52        9.370973  -0.000000
   53        9.417612  -0.000000
   54        9.469509  -0.000000
   55        9.567502  -0.000000
   56        9.651858  -0.000000

  0.4444444E+00  0.2222222E+00  0.3742002E-15  0.5486968E-02
    1       -5.073779   1.000000
    2       -4.533255   1.000000
    3       -3.928189   1.000000
    4       -3.504514   1.000000
    5       -3.356315   1.000000
    6       -3.103252   1.000000
    7       -1.888326   1.000000
    8       -1.478196   1.000000
    9       -1.036934   1.000000
   10       -0.790054   1.000000
   11        0.338264   1.000000
   12        0.851327   1.000000
   13        1.016311   1.000000
   14        1.038705   1.000000
   15        1.370478   1.000000
   16        1.667535   1.000000
   17        1.884682   1.000000
   18        2.092568   1.000000
   19        2.163794   1.000000
   20        2.303963   1.000000
   21        2.351277   1.000000
   22        2.546722   1.000000
   23        2.693673   1.000000
   24        3.279864   1.000000
   25        3.328579   1.000000
   26        3.484665   1.000000
   27        3.570208   1.000000
   28        3.636969   1.000000
   29        3.885073   1.000000
   30        3.907202   1.000000
   31        4.170339   1.000000
   32        4.371247   1.000000
   33        4.554405   1.000000