    8    8    1    1
  0.2353092E+02  0.5992512E-09  0.5992512E-09  0.6053137E-09  0.5000000E-15
   1.0000000000000000E-004
  CAR 
 Name                                    
     40     60     28

  0.3742002E-15  0.3742002E-15  0.3742002E-15  0.1371742E-02
    1       -2.761247   1.000000
    2       -0.126463   1.000000
    3        0.364373   1.000000
    4        0.364374   1.000000
    5        0.364374   1.000000
    6        0.715339   1.000000
    7        0.715339   1.000000
    8        0.715339   1.000000
    9        1.077198   1.000000
   10        1.104718   1.000000
   11        1.104719   1.000000
   12        1.104719   1.000000
   13        1.567365   1.000000
   14        1.567366   1.000000
   15        1.567366   1.000000
   16        1.700735   1.000000
   17        2.470941  -0.015029
   18        2.470942  -0.015028
   19        2.636088  -0.000007
   20        2.636372  -0.000007
   21        2.743263  -0.000000
   22        2.743264  -0.000000
   23        2.753704  -0.000000
   24        2.800960  -0.000000
   25        2.800961  -0.000000
   26        2.800962  -0.000000
   27        2.825593  -0.000000
   28        2.825594  -0.000000

  0.1111111E+00  0.3644361E-15  0.3742002E-15  0.8230453E-02
    1       -2.683953   1.000000
    2       -0.048459   1.000000
    3        0.300666   1.000000
    4        0.400268   1.000000
    5        0.400269   1.000000
    6        0.730286   1.000000
    7        0.744010   1.000000
    8        0.744010   1.000000
    9        1.100910   1.000000
   10        1.125875   1.000000
   11        1.160940   1.000000
   12        1.160941   1.000000
   13        1.515635   1.000000
   14        1.560536   1.000000
   15        1.560537   1.000000
   16        1.628787   1.000000
   17        2.430995  -0.032300
   18        2.513395  -0.003841
   19        2.605103  -0.000045
   20        2.641337  -0.000005
   21        2.647547  -0.000003
   22        2.647547  -0.000003
   23        2.677421  -0.000000
   24        2.760767  -0.000000
   25        2.762015  -0.000000
   26        2.762268  -0.000000
   27        2.769463  -0.000000
   28        2.774397  -0.000000

  0.2222222E+00  0.3603057E-15  0.3742002E-15  0.8230453E-02
    1       -2.455162   1.000000
    2        0.051766   1.000000
    3        0.178044   1.000000
    4        0.503257   1.000000
    5        0.503257   1.000000
    6        0.775647   1.000000
    7        0.823541   1.000000
    8        0.823542   1.000000
    9        1.168432   1.000000
   10        1.179890   1.000000
   11        1.326773   1.000000
   12        1.326773   1.000000
   13        1.421546   1.000000
   14        1.463801   1.000000
   15        1.540115   1.000000
   16        1.540115   1.000000
   17        2.321027   0.268955
   18        2.328391   0.216707
   19        2.328391   0.216703
   20        2.347751   0.102318
   21        2.522808  -0.002664
   22        2.599086  -0.000064
   23        2.599091  -0.000064
   24        2.637821  -0.000006
   25        2.802095  -0.000000
   26        2.815398  -0.000000
   27        2.850533  -0.000000
   28        3.618181  -0.000000

  0.3333333E+00  0.3775634E-15  0.3742002E-15  0.8230453E-02
    1       -2.084859   1.000000
    2       -0.424777   1.000000
    3        0.524404   1.000000
    4        0.654645   1.000000
    5        0.654645   1.000000
    6        0.852735   1.000000
    7        0.930689   1.000000
    8        0.930689   1.000000
    9        1.229673   1.000000
   10        1.267178   1.000000
   11        1.277364   1.000000
   12        1.395323   1.000000
   13        1.502127   1.000000
   14        1.502127   1.000000
   15        1.591311   1.000000
   16        1.591311   1.000000
   17        2.013234   1.000284
   18        2.013234   1.000284
   19        2.116262   1.015928
   20        2.170649   1.035451
   21        2.403018  -0.032892
   22        2.403018  -0.032892
   23        2.425305  -0.034028
   24        2.837710  -0.000000
   25        2.876654  -0.000000
   26        3.019224  -0.000000
   27        3.024939  -0.000000
   28        3.066765  -0.000000

  0.4444444E+00  0.3456514E-15  0.3742002E-15  0.8230453E-02
    1       -1.592716   1.000000
    2       -1.015521   1.000000
    3        0.796528   1.000000
    4        0.796528   1.000000
    5        0.913420   1.000000
    6        0.962826   1.000000
    7        1.015681   1.000000
    8        1.015681   1.000000
    9        1.105767   1.000000
   10        1.179409   1.000000
   11        1.367125   1.000000
   12        1.411200   1.000000
   13        1.442138   1.000000
   14        1.442138   1.000000
   15        1.821159   1.000000
   16        1.821159   1.000000
   17        1.908362   1.000000
   18        1.908362   1.000000
   19        1.999356   1.000136
   20        2.034097   1.000790
   21        2.263071   0.737323
   22        2.263071   0.737323
   23        2.395053  -0.027599
   24        2.567107  -0.000359
   25        2.567107  -0.000359
   26        2.590756  -0.000103
   27        2.931624  -0.000000
   28        3.071042  -0.000000

  0.1111111E+00  0.1111111E+00  0.3742002E-15  0.8230453E-02
    1       -2.530862   1.000000
    2        0.104138   1.000000
    3        0.258663   1.000000
    4        0.258663   1.000000
    5        0.560027   1.000000
    6        0.770764   1.000000
    7        0.770764   1.000000
    8        0.815808   1.000000
    9        1.146707   1.000000
   10        1.202714   1.000000
   11        1.202714   1.000000
   12        1.302594   1.000000
   13        1.472449   1.000000
   14        1.472449   1.000000
   15        1.512754   1.000000
   16        1.594174   1.000000
   17        2.354215   0.072336
   18        2.411592  -0.035276
   19        2.411592  -0.035276
   20        2.440454  -0.028543
   21        2.545334  -0.001018
   22        2.578446  -0.000200
   23        2.598533  -0.000066
   24        2.759675  -0.000000
   25        2.786731  -0.000000
   26        2.789071  -0.000000
   27        2.803371  -0.000000
   28        2.812471  -0.000000

  0.2222222E+00  0.1111111E+00  0.3742002E-15  0.1646091E-01
    1       -2.230894   1.000000
    2       -0.109197   1.000000
    3        0.261630   1.000000
    4        0.393927   1.000000
    5        0.774441   1.000000
    6        0.825730   1.000000
    7        0.848692   1.000000
    8        0.936598   1.000000
    9        1.231455   1.000000
   10        1.266020   1.000000
   11        1.344790   1.000000
   12        1.391616   1.000000
   13        1.407645   1.000000
   14        1.448385   1.000000
   15        1.539217   1.000000
   16        1.604299   1.000000
   17        2.112675   1.014508
   18        2.149303   1.030556
   19        2.158676   1.033771
   20        2.217906   0.974825
   21        2.336600   0.163860
   22        2.443981  -0.026976
   23        2.657750  -0.000002
   24        2.765123  -0.000000
   25        2.844893  -0.000000
   26        2.875866  -0.000000
   27        2.910674  -0.000000
   28        3.207069  -0.000000

  0.3333333E+00  0.1111111E+00  0.3742002E-15  0.1646091E-01
    1       -1.798039   1.000000
    2       -0.662889   1.000000
    3        0.284947   1.000000
    4        0.776675   1.000000
    5        0.911055   1.000000
    6        0.930008   1.000000
    7        1.027955   1.000000
    8        1.073727   1.000000
    9        1.175515   1.000000
   10        1.288730   1.000000
   11        1.337251   1.000000
   12        1.422546   1.000000
   13        1.460214   1.000000
   14        1.552631   1.000000
   15        1.684934   1.000000
   16        1.843378   1.000000
   17        1.858929   1.000000
   18        1.891370   1.000000
   19        1.989156   1.000077
   20        2.061000   1.002544
   21        2.109705   1.013389
   22        2.351530   0.084276
   23        2.520617  -0.002907
   24        2.614781  -0.000025
   25        2.697065  -0.000000
   26        2.854979  -0.000000
   27        2.908979  -0.000000
   28        2.939634  -0.000000

  0.4444444E+00  0.1111111E+00  0.3742002E-15  0.8230453E-02
    1       -1.258611   1.000000
    2       -1.258610   1.000000
    3        0.297879   1.000000
    4        0.966241   1.000000
    5        1.028159   1.000000
    6        1.028159   1.000000
    7        1.135063   1.000000
    8        1.135063   1.000000
    9        1.144145   1.000000
   10        1.228672   1.000000
   11        1.418948   1.000000
   12        1.420077   1.000000
   13        1.420077   1.000000
   14        1.486772   1.000000
   15        1.743097   1.000000
   16        1.803478   1.000000
   17        1.953951   1.000009
   18        1.953952   1.000009
   19        1.978818   1.000043
   20        2.006509   1.000200
   21        2.064312   1.002904
   22        2.234503   0.910713
   23        2.383203  -0.012635
   24        2.383203  -0.012635
   25        2.461572  -0.018943
   26        2.584571  -0.000144
   27        2.959148  -0.000000
   28        2.974386  -0.000000

  0.2222222E+00  0.2222222E+00  0.3742002E-15  0.8230453E-02
    1       -1.867232   1.000000
    2       -0.218901   1.000000
    3       -0.218901   1.000000
    4        0.730553   1.000000
    5        0.896033   1.000000
    6        0.896033   1.000000
    7        1.058956   1.000000
    8        1.101235   1.000000
    9        1.204219   1.000000
   10        1.328018   1.000000
   11        1.446490   1.000000
   12        1.446490   1.000000
   13        1.463853   1.000000
   14        1.463853   1.000000
   15        1.645144   1.000000
   16        1.819988   1.000000
   17        1.926663   1.000001
   18        1.927898   1.000002
   19        1.927898   1.000002
   20        2.049446   1.001572
   21        2.063173   1.002776
   22        2.325069   0.239747
   23        2.679139  -0.000000
   24        2.679140  -0.000000
   25        2.745399  -0.000000
   26        2.745431  -0.000000
   27        2.916682  -0.000000
   28        2.973596  -0.000000

  0.3333333E+00  0.2222222E+00  0.3742002E-15  0.1646091E-01
    1       -1.382310   1.000000
    2       -0.810256   1.000000
    3       -0.274385   1.000000
    4        0.948607   1.000000
    5        0.970572   1.000000
    6        1.074573   1.000000
    7        1.130935   1.000000
    8        1.274222   1.000000
    9        1.341305   1.000000
   10        1.429236   1.000000
   11        1.437196   1.000000
   12        1.490852   1.000000
   13        1.543773   1.000000
   14        1.586631   1.000000
   15        1.720038   1.000000
   16        1.755118   1.000000
   17        1.768762   1.000000
   18        1.808365   1.000000
   19        1.829604   1.000000
   20        1.901732   1.000000
   21        2.121111   1.017956
   22        2.190318   1.027225
   23        2.225599   0.948495
   24        2.300353   0.433572
   25        2.644690  -0.000004
   26        2.667023  -0.000001
   27        2.850815  -0.000000
   28        2.971035  -0.000000

  0.3333333E+00  0.3333333E+00  0.3742002E-15  0.2743484E-02
    1       -0.860068   1.000000
    2       -0.860068   1.000000
    3       -0.860067   1.000000
    4        0.996170   1.000000
    5        0.996171   1.000000
    6        0.996171   1.000000
    7        1.523606   1.000000
    8        1.523607   1.000000
    9        1.541289   1.000000
   10        1.541289   1.000000
   11        1.541290   1.000000
   12        1.553998   1.000000
   13        1.553998   1.000000
   14        1.553998   1.000000
   15        1.566640   1.000000
   16        1.566641   1.000000
   17        1.626192   1.000000
   18        1.730649   1.000000
   19        1.730649   1.000000
   20        1.730649   1.000000
   21        2.095175   1.008714
   22        2.095175   1.008714
   23        2.095175   1.008715
   24        2.396126  -0.028512
   25        2.396127  -0.028513
   26        2.819578  -0.000000
   27        2.819582  -0.000000
   28        2.819586  -0.000000

  0.3742002E-15  0.3742002E-15  0.1111111E+00  0.2743484E-02
    1       -2.707296   1.000000
    2       -0.265524   1.000000
    3        0.392771   1.000000
    4        0.392771   1.000000
    5        0.392771   1.000000
    6        0.744006   1.000000
    7        0.744006   1.000000
    8        0.744006   1.000000
    9        1.085648   1.000000
   10        1.085649   1.000000
   11        1.085649   1.000000
   12        1.098065   1.000000
   13        1.614995   1.000000
   14        1.614996   1.000000
   15        1.614996   1.000000
   16        1.696796   1.000000
   17        2.376810  -0.000320
   18        2.376811  -0.000320
   19        2.376811  -0.000320
   20        2.475816  -0.013181
   21        2.475818  -0.013180
   22        2.631002  -0.000009
   23        2.631003  -0.000009
   24        2.846576  -0.000000
   25        2.846577  -0.000000
   26        2.846579  -0.000000
   27        3.195823  -0.000000
   28        3.196454  -0.000000

  0.1111111E+00  0.3644361E-15  0.1111111E+00  0.1646091E-01
    1       -2.630172   1.000000
    2       -0.190529   1.000000
    3        0.330704   1.000000
    4        0.428835   1.000000
    5        0.428835   1.000000
    6        0.752675   1.000000
    7        0.770804   1.000000
    8        0.770804   1.000000
    9        1.110545   1.000000
   10        1.122045   1.000000
   11        1.142112   1.000000
   12        1.142112   1.000000
   13        1.553257   1.000000
   14        1.605323   1.000000
   15        1.605323   1.000000
   16        1.642977   1.000000
   17        2.348726   0.097528
   18        2.348726   0.097526
   19        2.364570   0.033030
   20        2.436097  -0.030376
   21        2.518190  -0.003196
   22        2.599685  -0.000062
   23        2.671705  -0.000001
   24        2.784292  -0.000000
   25        2.784301  -0.000000
   26        2.857949  -0.000000
   27        3.067632  -0.000000
   28        3.072015  -0.000000

  0.2222222E+00  0.3603057E-15  0.1111111E+00  0.1646091E-01
    1       -2.401944   1.000000
    2        0.025171   1.000000
    3        0.086641   1.000000
    4        0.532265   1.000000
    5        0.532265   1.000000
    6        0.778091   1.000000
    7        0.845393   1.000000
    8        0.845393   1.000000
    9        1.176273   1.000000
   10        1.190398   1.000000
   11        1.307694   1.000000
   12        1.307694   1.000000
   13        1.445359   1.000000
   14        1.517834   1.000000
   15        1.577159   1.000000
   16        1.577159   1.000000
   17        2.221282   0.963973
   18        2.221283   0.963972
   19        2.275271   0.643244
   20        2.326771   0.227829
   21        2.516749  -0.003380
   22        2.625010  -0.000014
   23        2.625012  -0.000014
   24        2.642347  -0.000004
   25        2.790853  -0.000000
   26        2.896670  -0.000000
   27        2.909671  -0.000000
   28        3.558544  -0.000000

  0.3333333E+00  0.3775634E-15  0.1111111E+00  0.1646091E-01
    1       -2.032775   1.000000
    2       -0.383534   1.000000
    3        0.344975   1.000000
    4        0.684295   1.000000
    5        0.684295   1.000000
    6        0.812895   1.000000
    7        0.945917   1.000000
    8        0.945918   1.000000
    9        1.252963   1.000000
   10        1.290412   1.000000
   11        1.383994   1.000000
   12        1.415067   1.000000
   13        1.527312   1.000000
   14        1.527313   1.000000
   15        1.568828   1.000000
   16        1.568828   1.000000
   17        2.003039   1.000167
   18        2.003040   1.000167
   19        2.116500   1.016025
   20        2.177415   1.034523
   21        2.419001  -0.035219
   22        2.436631  -0.030160
   23        2.436631  -0.030160
   24        2.845028  -0.000000
   25        2.882600  -0.000000
   26        3.009756  -0.000000
   27        3.016952  -0.000000
   28        3.050795  -0.000000

  0.4444444E+00  0.3456514E-15  0.1111111E+00  0.1646091E-01
    1       -1.542677   1.000000
    2       -0.968954   1.000000
    3        0.667433   1.000000
    4        0.817395   1.000000
    5        0.827141   1.000000
    6        0.827141   1.000000
    7        1.025178   1.000000
    8        1.025178   1.000000
    9        1.287912   1.000000
   10        1.298019   1.000000
   11        1.391088   1.000000
   12        1.433015   1.000000
   13        1.454989   1.000000
   14        1.454989   1.000000
   15        1.847376   1.000000
   16        1.847376   1.000000
   17        1.870488   1.000000
   18        1.870488   1.000000
   19        2.010324   1.000245
   20        2.042660   1.001168
   21        2.312990   0.330384
   22        2.312990   0.330384
   23        2.390155  -0.022547
   24        2.566387  -0.000373
   25        2.566387  -0.000373
   26        2.584916  -0.000142
   27        2.908108  -0.000000
   28        2.928295  -0.000000

  0.1111111E+00  0.1111111E+00  0.1111111E+00  0.1646091E-01
    1       -2.477446   1.000000
    2       -0.044846   1.000000
    3        0.290525   1.000000
    4        0.290525   1.000000
    5        0.587391   1.000000
    6        0.785521   1.000000
    7        0.785521   1.000000
    8        0.842886   1.000000
    9        1.168400   1.000000
   10        1.190846   1.000000
   11        1.190846   1.000000
   12        1.280457   1.000000
   13        1.501947   1.000000
   14        1.501947   1.000000
   15        1.555052   1.000000
   16        1.642242   1.000000
   17        2.263568   0.733678
   18        2.291062   0.511968
   19        2.291062   0.511968
   20        2.359748   0.050016
   21        2.539231  -0.001337
   22        2.603128  -0.000051
   23        2.604910  -0.000046
   24        2.754789  -0.000000
   25        2.810596  -0.000000
   26        2.810988  -0.000000
   27        2.946378  -0.000000
   28        2.946546  -0.000000

  0.2222222E+00  0.1111111E+00  0.1111111E+00  0.3292181E-01
    1       -2.178320   1.000000
    2       -0.071394   1.000000
    3        0.226143   1.000000
    4        0.295477   1.000000
    5        0.800612   1.000000
    6        0.813636   1.000000
    7        0.854770   1.000000
    8        0.960414   1.000000
    9        1.254286   1.000000
   10        1.269681   1.000000
   11        1.381186   1.000000
   12        1.428134   1.000000
   13        1.431628   1.000000
   14        1.470823   1.000000
   15        1.510880   1.000000
   16        1.648998   1.000000
   17        2.085291   1.006295
   18        2.095937   1.008926
   19        2.145572   1.029007
   20        2.224243   0.953556
   21        2.373239   0.008026
   22        2.436856  -0.030068
   23        2.681627  -0.000000
   24        2.772835  -0.000000
   25        2.877894  -0.000000
   26        2.894849  -0.000000
   27        3.141221  -0.000000
   28        3.186613  -0.000000

  0.3333333E+00  0.1111111E+00  0.1111111E+00  0.3292181E-01
    1       -1.747031   1.000000
    2       -0.619001   1.000000
    3        0.320430   1.000000
    4        0.559753   1.000000
    5        0.841020   1.000000
    6        0.928613   1.000000
    7        1.052975   1.000000
    8        1.091820   1.000000
    9        1.332280   1.000000
   10        1.333010   1.000000
   11        1.361469   1.000000
   12        1.442954   1.000000
   13        1.476326   1.000000
   14        1.580275   1.000000
   15        1.671707   1.000000
   16        1.790234   1.000000
   17        1.879154   1.000000
   18        1.892931   1.000000
   19        2.000566   1.000146
   20        2.068585   1.003430
   21        2.175520   1.034952
   22        2.344297   0.120066
   23        2.534685  -0.001628
   24        2.626441  -0.000012
   25        2.687164  -0.000000
   26        2.850675  -0.000000
   27        2.915630  -0.000000
   28        2.968177  -0.000000

  0.4444444E+00  0.1111111E+00  0.1111111E+00  0.1646091E-01
    1       -1.210318   1.000000
    2       -1.210318   1.000000
    3        0.334007   1.000000
    4        0.798327   1.000000
    5        0.798327   1.000000
    6        0.961622   1.000000
    7        1.158318   1.000000
    8        1.257568   1.000000
    9        1.321033   1.000000
   10        1.321033   1.000000
   11        1.429149   1.000000
   12        1.443925   1.000000
   13        1.443925   1.000000
   14        1.497456   1.000000
   15        1.775059   1.000000
   16        1.830539   1.000000
   17        1.920068   1.000001
   18        1.950576   1.000007
   19        1.964222   1.000018
   20        1.964222   1.000018
   21        2.165303   1.035139
   22        2.238618   0.890550
   23        2.377929  -0.002712
   24        2.377929  -0.002712
   25        2.502219  -0.005763
   26        2.583348  -0.000154
   27        2.928003  -0.000000
   28        2.963800  -0.000000

  0.2222222E+00  0.2222222E+00  0.1111111E+00  0.1646091E-01
    1       -1.815913   1.000000
    2       -0.178725   1.000000
    3       -0.178725   1.000000
    4        0.520274   1.000000
    5        0.871665   1.000000
    6        0.871665   1.000000
    7        1.081731   1.000000
    8        1.122885   1.000000
    9        1.352389   1.000000
   10        1.353542   1.000000
   11        1.465374   1.000000
   12        1.465374   1.000000
   13        1.470564   1.000000
   14        1.470564   1.000000
   15        1.695000   1.000000
   16        1.757446   1.000000
   17        1.898829   1.000000
   18        1.942145   1.000004
   19        1.942145   1.000004
   20        2.070375   1.003673
   21        2.123678   1.019074
   22        2.315927   0.307469
   23        2.661296  -0.000001
   24        2.661299  -0.000001
   25        2.779833  -0.000000
   26        2.780605  -0.000000
   27        2.958501  -0.000000
   28        2.969390  -0.000000

  0.3333333E+00  0.2222222E+00  0.1111111E+00  0.3292181E-01
    1       -1.333174   1.000000
    2       -0.764708   1.000000
    3       -0.232877   1.000000
    4        0.790093   1.000000
    5        0.878902   1.000000
    6        0.917190   1.000000
    7        1.290348   1.000000
    8        1.359379   1.000000
    9        1.372000   1.000000
   10        1.463243   1.000000
   11        1.488481   1.000000
   12        1.513990   1.000000
   13        1.559890   1.000000
   14        1.613166   1.000000
   15        1.744371   1.000000
   16        1.773436   1.000000
   17        1.775399   1.000000
   18        1.783837   1.000000
   19        1.843395   1.000000
   20        1.910299   1.000000
   21        2.160546   1.034250
   22        2.183651   1.032028
   23        2.215403   0.982175
   24        2.293397   0.492211
   25        2.644736  -0.000004
   26        2.698040  -0.000000
   27        2.874538  -0.000000
   28        2.974950  -0.000000

  0.3333333E+00  0.3333333E+00  0.1111111E+00  0.5486968E-02
    1       -0.813956   1.000000
    2       -0.813956   1.000000
    3       -0.813955   1.000000
    4        0.897012   1.000000
    5        0.897012   1.000000
    6        0.897013   1.000000
    7        1.531547   1.000000
    8        1.531547   1.000000
    9        1.570019   1.000000
   10        1.570020   1.000000
   11        1.582863   1.000000
   12        1.582863   1.000000
   13        1.582863   1.000000
   14        1.614112   1.000000
   15        1.614112   1.000000
   16        1.614113   1.000000
   17        1.685921   1.000000
   18        1.739839   1.000000
   19        1.739839   1.000000
   20        1.739840   1.000000
   21        2.080332   1.005296
   22        2.080332   1.005296
   23        2.080332   1.005296
   24        2.404484  -0.033520
   25        2.404484  -0.033520
   26        2.845435  -0.000000
   27        2.845513  -0.000000
   28        2.845708  -0.000000

  0.3742002E-15  0.3742002E-15  0.2222222E+00  0.2743484E-02
    1       -2.547446   1.000000
    2       -0.616933   1.000000
    3        0.471429   1.000000
    4        0.471430   1.000000
    5        0.471430   1.000000
    6        0.829405   1.000000
    7        0.829405   1.000000
    8        0.829406   1.000000
    9        1.030324   1.000000
   10        1.030325   1.000000
   11        1.030325   1.000000
   12        1.158404   1.000000
   13        1.666202   1.000000
   14        1.760354   1.000000
   15        1.760355   1.000000
   16        1.760355   1.000000
   17        2.015143   1.000313
   18        2.015143   1.000313
   19        2.015143   1.000313
   20        2.489894  -0.008683
   21        2.489895  -0.008682
   22        2.616400  -0.000023
   23        2.616402  -0.000023
   24        2.907725  -0.000000
   25        2.907726  -0.000000
   26        3.638500  -0.000000
   27        3.642623  -0.000000
   28        3.645225  -0.000000

  0.1111111E+00  0.3644361E-15  0.2222222E+00  0.1646091E-01
    1       -2.470847   1.000000
    2       -0.545317   1.000000
    3        0.413848   1.000000
    4        0.507825   1.000000
    5        0.507825   1.000000
    6        0.810850   1.000000
    7        0.848271   1.000000
    8        0.848271   1.000000
    9        1.074510   1.000000
   10        1.090121   1.000000
   11        1.090121   1.000000
   12        1.183095   1.000000
   13        1.644005   1.000000
   14        1.647069   1.000000
   15        1.729970   1.000000
   16        1.729970   1.000000
   17        2.035974   1.000862
   18        2.035974   1.000862
   19        2.094844   1.008624
   20        2.450837  -0.023824
   21        2.532044  -0.001822
   22        2.584170  -0.000147
   23        2.657112  -0.000002
   24        2.847343  -0.000000
   25        2.847344  -0.000000
   26        2.918539  -0.000000
   27        3.400105  -0.000000
   28        3.438411  -0.000000

  0.2222222E+00  0.3603057E-15  0.2222222E+00  0.1646091E-01
    1       -2.244377   1.000000
    2       -0.339571   1.000000
    3        0.184174   1.000000
    4        0.611894   1.000000
    5        0.611894   1.000000
    6        0.771300   1.000000
    7        0.905493   1.000000
    8        0.905493   1.000000
    9        1.179559   1.000000
   10        1.253624   1.000000
   11        1.258774   1.000000
   12        1.258774   1.000000
   13        1.498198   1.000000
   14        1.600319   1.000000
   15        1.663007   1.000000
   16        1.663007   1.000000
   17        2.053992   1.001907
   18        2.053992   1.001907
   19        2.168020   1.035399
   20        2.343404   0.124848
   21        2.498927  -0.006455
   22        2.655485  -0.000002
   23        2.697236  -0.000000
   24        2.697237  -0.000000
   25        2.775947  -0.000000
   26        2.950922  -0.000000
   27        3.083764  -0.000000
   28        3.134081  -0.000000

  0.3333333E+00  0.3775634E-15  0.2222222E+00  0.1646091E-01
    1       -1.878800   1.000000
    2       -0.265290   1.000000
    3       -0.032385   1.000000
    4        0.705167   1.000000
    5        0.763923   1.000000
    6        0.763923   1.000000
    7        0.986203   1.000000
    8        0.986203   1.000000
    9        1.310234   1.000000
   10        1.356934   1.000000
   11        1.464202   1.000000
   12        1.514132   1.000000
   13        1.514132   1.000000
   14        1.548537   1.000000
   15        1.578037   1.000000
   16        1.578037   1.000000
   17        2.008345   1.000221
   18        2.008345   1.000221
   19        2.130481   1.022145
   20        2.197236   1.019456
   21        2.399660  -0.031066
   22        2.526215  -0.002321
   23        2.526215  -0.002321
   24        2.853878  -0.000000
   25        2.898919  -0.000000
   26        2.982273  -0.000000
   27        2.991950  -0.000000
   28        2.994398  -0.000000

  0.4444444E+00  0.3456514E-15  0.2222222E+00  0.1646091E-01
    1       -1.395297   1.000000
    2       -0.832993   1.000000
    3        0.304384   1.000000
    4        0.565401   1.000000
    5        0.905679   1.000000
    6        0.905679   1.000000
    7        1.049768   1.000000
    8        1.049768   1.000000
    9        1.429263   1.000000
   10        1.458747   1.000000
   11        1.488148   1.000000
   12        1.488148   1.000000
   13        1.491828   1.000000
   14        1.501869   1.000000
   15        1.791452   1.000000
   16        1.791452   1.000000
   17        1.937800   1.000003
   18        1.937800   1.000003
   19        2.047106   1.001420
   20        2.068850   1.003465
   21        2.374290   0.005457
   22        2.423038  -0.034557
   23        2.423038  -0.034557
   24        2.565034  -0.000399
   25        2.570709  -0.000299
   26        2.570709  -0.000299
   27        2.849932  -0.000000
   28        2.849987  -0.000000

  0.1111111E+00  0.1111111E+00  0.2222222E+00  0.1646091E-01
    1       -2.319260   1.000000
    2       -0.406408   1.000000
    3        0.378741   1.000000
    4        0.378741   1.000000
    5        0.662812   1.000000
    6        0.817890   1.000000
    7        0.817890   1.000000
    8        0.923320   1.000000
    9        1.168008   1.000000
   10        1.168008   1.000000
   11        1.218218   1.000000
   12        1.230920   1.000000
   13        1.566756   1.000000
   14        1.566756   1.000000
   15        1.614796   1.000000
   16        1.788811   1.000000
   17        1.984008   1.000058
   18        2.127610   1.020834
   19        2.127610   1.020834
   20        2.375749   0.002046
   21        2.521849  -0.002768
   22        2.616477  -0.000023
   23        2.678697  -0.000000
   24        2.739933  -0.000000
   25        2.872078  -0.000000
   26        2.872097  -0.000000
   27        3.174690  -0.000000
   28        3.175166  -0.000000

  0.2222222E+00  0.1111111E+00  0.2222222E+00  0.3292181E-01
    1       -2.022784   1.000000
    2       -0.147979   1.000000
    3        0.035404   1.000000
    4        0.389089   1.000000