 running on    8 total cores
 distrk:  each k-point on    8 cores,    1 groups
 distr:  one band on    2 cores,    4 groups
 using from now: INCAR     
 vasp.5.4.4.18Apr17-6-g9f103f2a35 (build Dec  7 2020 12:43:57) complex           
 POSCAR found type information on POSCAR  V 
 POSCAR found :  1 types and       8 ions
 scaLAPACK will be used

 ----------------------------------------------------------------------------- 
|                                                                             |
|  ADVICE TO THIS USER RUNNING 'VASP/VAMP'   (HEAR YOUR MASTER'S VOICE ...):  |
|                                                                             |
|      You have a (more or less) 'small supercell' and for smaller cells      |
|      it is recommended  to use the reciprocal-space projection scheme!      |
|      The real space optimization is not  efficient for small cells and it   |
|      is also less accurate ...                                              |
|      Therefore set LREAL=.FALSE. in the  INCAR file                         |
|                                                                             |
 ----------------------------------------------------------------------------- 

 LDA part: xc-table for Pade appr. of Perdew
 POSCAR, INCAR and KPOINTS ok, starting setup
 resort distribution
 resort distribution
 resort distribution
 resort distribution
 resort distribution
 resort distribution
 resort distribution
 resort distribution
 FFT: planning ...
 WAVECAR not read
 augmentation electrons   40.031706911717635     
 soft         electrons   0.0000000000000000     
 augmentation electrons   40.031706911717635     
 soft         electrons   0.0000000000000000     
 augmentation electrons   40.031706911717635     
 soft         electrons   0.0000000000000000     
 augmentation electrons   40.031706911717635     
 soft         electrons   0.0000000000000000     
 augmentation electrons   40.031706911717635     
 soft         electrons   0.0000000000000000     
 augmentation electrons   40.031706911717635     
 soft         electrons   0.0000000000000000     
 augmentation electrons   40.031706911717635     
 soft         electrons   0.0000000000000000     
 augmentation electrons   40.031706911717635     
 soft         electrons   0.0000000000000000     
 total        electrons   40.031706911717635     
 total        electrons   40.031706911717635     
 total        electrons   40.031706911717635     
 total        electrons   40.031706911717635     
 total        electrons   40.031706911717635     
 total        electrons   40.031706911717635     
 total        electrons   40.031706911717635     
 total        electrons   40.031706911717635     
 augmentation electrons   243.41255511138601     
 soft         electrons   0.0000000000000000     
 augmentation electrons   243.41255511138601     
 soft         electrons   0.0000000000000000     
 augmentation electrons   243.41255511138601     
 soft         electrons   0.0000000000000000     
 augmentation electrons   243.41255511138601     
 soft         electrons   0.0000000000000000     
 augmentation electrons   243.41255511138601     
 soft         electrons   0.0000000000000000     
 augmentation electrons   243.41255511138601     
 soft         electrons   0.0000000000000000     
 augmentation electrons   243.41255511138601     
 soft         electrons   0.0000000000000000     
 augmentation electrons   243.41255511138601     
 soft         electrons   0.0000000000000000     
 total        electrons   243.41255511138601     
 total        electrons   243.41255511138601     
 total        electrons   243.41255511138601     
 total        electrons   243.41255511138601     
 total        electrons   243.41255511138601     
 total        electrons   243.41255511138601     
 total        electrons   243.41255511138601     
 total        electrons   243.41255511138601     
 entering main loop
       N       E                     dE             d eps       ncg     rms          rms(c)
DAV:   1     0.202451257230E+03    0.20245E+03   -0.12696E+04  3360   0.134E+03
DAV:   2    -0.360477842250E+02   -0.23850E+03   -0.23196E+03  3360   0.296E+02
DAV:   3    -0.669725528926E+02   -0.30925E+02   -0.28903E+02  6028   0.111E+02
DAV:   4    -0.700047993002E+02   -0.30322E+01   -0.28637E+01  5832   0.384E+01
DAV:   5    -0.702160865172E+02   -0.21129E+00   -0.19991E+00  5864   0.783E+00    0.219E+01
RMM:   6    -0.557123803278E+02    0.14504E+02   -0.76391E+01  3360   0.910E+01    0.420E+00
RMM:   7    -0.571006911357E+02   -0.13883E+01   -0.16215E+01  3822   0.141E+01    0.376E+00
RMM:   8    -0.569060445624E+02    0.19465E+00   -0.45715E+00  3384   0.252E+01    0.248E+00
RMM:   9    -0.569910541666E+02   -0.85010E-01   -0.56996E-01  4641   0.352E+00    0.249E+00
RMM:  10    -0.568893166704E+02    0.10174E+00   -0.51277E-01  3591   0.688E+00    0.651E-01
RMM:  11    -0.569159347340E+02   -0.26618E-01   -0.29091E-01  5076   0.195E+00    0.599E-01
RMM:  12    -0.569084661103E+02    0.74686E-02   -0.35614E-02  4050   0.158E+00    0.251E-01
RMM:  13    -0.569094644697E+02   -0.99836E-03   -0.26010E-02  5071   0.608E-01    0.104E-01
RMM:  14    -0.569098589970E+02   -0.39453E-03   -0.50895E-03  5379   0.182E-01    0.536E-02
RMM:  15    -0.569099715660E+02   -0.11257E-03   -0.47923E-04  4191   0.182E-01    0.598E-02
RMM:  16    -0.569098650859E+02    0.10648E-03   -0.25226E-04  4024   0.158E-01    0.254E-02
RMM:  17    -0.569098578778E+02    0.72080E-05   -0.26614E-04  4694   0.956E-02    0.426E-03
RMM:  18    -0.569098692695E+02   -0.11392E-04   -0.11788E-04  5219   0.218E-02    0.608E-03
RMM:  19    -0.569098696870E+02   -0.41752E-06   -0.94383E-06  3928   0.255E-02
   1 F= -.56909870E+02 E0= -.56910844E+02  d E =0.292429E-02
 writing wavefunctions
 augmentation electrons   15.023524013416642     
 soft         electrons   25.024996959006170     
 augmentation electrons   15.023524013416642     
 soft         electrons   25.024996959006170     
 augmentation electrons   15.023524013416642     
 soft         electrons   25.024996959006170     
 augmentation electrons   15.023524013416642     
 soft         electrons   25.024996959006170     
 augmentation electrons   15.023524013416642     
 soft         electrons   25.024996959006170     
 augmentation electrons   15.023524013416642     
 soft         electrons   25.024996959006170     
 augmentation electrons   15.023524013416642     
 soft         electrons   25.024996959006170     
 augmentation electrons   15.023524013416642     
 soft         electrons   25.024996959006170     
 total        electrons   40.048520972422814     
 total        electrons   40.048520972422814     
 total        electrons   40.048520972422814     
 total        electrons   40.048520972422814     
 total        electrons   40.048520972422814     
 total        electrons   40.048520972422814     
 total        electrons   40.048520972422814     
 total        electrons   40.048520972422814     
Note: The following floating-point exceptions are signalling: IEEE_OVERFLOW_FLAG
Note: The following floating-point exceptions are signalling: IEEE_OVERFLOW_FLAG
Note: The following floating-point exceptions are signalling: IEEE_OVERFLOW_FLAG
Note: The following floating-point exceptions are signalling: IEEE_OVERFLOW_FLAG
Note: The following floating-point exceptions are signalling: IEEE_OVERFLOW_FLAG
Note: The following floating-point exceptions are signalling: IEEE_OVERFLOW_FLAG
Note: The following floating-point exceptions are signalling: IEEE_OVERFLOW_FLAG
Note: The following floating-point exceptions are signalling: IEEE_OVERFLOW_FLAG
