   74   74    1    1
  0.2110353E+02  0.1053953E-08  0.6141200E-09  0.2412750E-08  0.5000000E-15
   1.0000000000000000E-004
  CAR 
 Name                                    
    284     23    184

  0.3742002E-15  0.3742002E-15  0.1262379E-14  0.2222222E-01
    1      -13.887166   1.000000
    2      -12.788896   1.000000
    3      -12.685190   1.000000
    4      -12.663736   1.000000
    5      -11.722241   1.000000
    6      -11.692968   1.000000
    7      -11.537754   1.000000
    8      -11.498028   1.000000
    9      -11.328549   1.000000
   10      -11.180096   1.000000
   11      -11.155774   1.000000
   12      -10.987079   1.000000
   13      -10.951840   1.000000
   14      -10.693470   1.000000
   15      -10.627293   1.000000
   16      -10.412706   1.000000
   17      -10.121819   1.000000
   18      -10.081035   1.000000
   19      -10.036640   1.000000
   20       -9.728303   1.000000
   21       -9.670935   1.000000
   22       -9.568907   1.000000
   23       -9.482073   1.000000
   24       -9.336432   1.000000
   25       -8.928695   1.000000
   26       -8.794183   1.000000
   27       -8.589515   1.000000
   28       -8.496619   1.000000
   29       -8.408274   1.000000
   30       -8.269564   1.000000
   31       -8.059937   1.000000
   32       -7.762773   1.000000
   33       -7.759214   1.000000
   34       -7.671107   1.000000
   35       -7.224345   1.000000
   36       -7.116877   1.000000
   37       -6.988254   1.000000
   38       -6.899361   1.000000
   39       -6.842283   1.000000
   40       -6.668696   1.000000
   41       -6.628902   1.000000
   42       -6.526040   1.000000
   43       -6.525394   1.000000
   44       -6.511554   1.000000
   45       -6.434106   1.000000
   46       -6.346992   1.000000
   47       -6.342671   1.000000
   48       -6.122001   1.000000
   49       -6.069064   1.000000
   50       -5.997573   1.000000
   51       -5.956942   1.000000
   52       -5.771588   1.000000
   53       -5.661561   1.000000
   54       -5.629035   1.000000
   55       -5.610978   1.000000
   56       -5.521046   1.000000
   57       -5.466660   1.000000
   58       -5.366826   1.000000
   59       -5.260080   1.000000
   60       -5.220597   1.000000
   61       -5.197805   1.000000
   62       -5.106440   1.000000
   63       -4.872782   1.000000
   64       -4.747140   1.000000
   65       -4.617487   1.000000
   66       -4.574348   1.000000
   67       -4.532684   1.000000
   68       -4.498851   1.000000
   69       -4.495202   1.000000
   70       -4.341028   1.000000
   71       -4.282302   1.000000
   72       -4.129586   1.000000
   73       -4.106884   1.000000
   74       -4.090994   1.000000
   75       -4.073908   1.000000
   76       -4.040276   1.000000
   77       -4.004387   1.000000
   78       -3.937602   1.000000
   79       -3.869083   1.000000
   80       -3.841433   1.000000
   81       -3.801284   1.000000
   82       -3.766769   1.000000
   83       -3.717360   1.000000
   84       -3.701148   1.000000
   85       -3.623616   1.000000
   86       -3.591025   1.000000
   87       -3.574131   1.000000
   88       -3.525949   1.000000
   89       -3.434164   1.000000
   90       -3.423072   1.000000
   91       -3.296918   1.000000
   92       -3.231845   1.000000
   93       -3.214677   1.000000
   94       -3.056996   1.000000
   95       -3.000293   1.000000
   96       -2.876694   1.000000
   97       -2.833471   1.000000
   98       -2.716822   1.000000
   99       -2.667459   1.000000
  100       -2.556835   1.000000
  101       -2.458043   1.000000
  102       -2.455710   1.000000
  103       -2.302692   1.000000
  104       -2.267461   1.000000
  105       -2.249084   1.000000
  106       -2.200274   1.000000
  107       -2.123072   1.000000
  108       -2.086500   1.000000
  109       -1.970651   1.000000
  110       -1.957340   1.000000
  111       -1.886886   1.000000
  112       -1.798845   1.000000
  113       -1.760106   1.000000
  114       -1.729828   1.000000
  115       -1.707348   1.000000
  116       -1.695775   1.000000
  117       -1.600132   1.000000
  118       -1.599079   1.000000
  119       -1.576275   1.000000
  120       -1.568669   1.000000
  121       -1.382635   1.000000
  122       -0.908849   1.000000
  123       -0.901274   1.000000
  124       -0.887819   1.000000
  125       -0.765631   1.000000
  126       -0.639781   1.000000
  127       -0.615569   1.000000
  128       -0.437274   1.000000
  129       -0.405596   1.000000
  130       -0.295882   1.000000
  131       -0.099669   1.000000
  132       -0.076024   1.000000
  133       -0.071765   1.000000
  134        0.106056   1.000000
  135        0.312121   1.000631
  136        0.318988   1.000870
  137        0.321264   1.000966
  138        0.412601   1.021834
  139        0.423383   1.026801
  140        0.470610   1.029315
  141        0.472729   1.027571
  142        0.535819   0.806823
  143        0.591211   0.367005
  144        0.690864  -0.034657
  145        0.697474  -0.035457
  146        0.705141  -0.034698
  147        0.767081  -0.010323
  148        0.770175  -0.009393
  149        0.909050  -0.000012
  150        0.946082  -0.000001
  151        1.135841  -0.000000
  152        1.169283  -0.000000
  153        1.277007  -0.000000
  154        1.290713  -0.000000
  155        1.375593  -0.000000
  156        1.378308  -0.000000
  157        1.440489  -0.000000
  158        1.443992  -0.000000
  159        1.472541  -0.000000
  160        1.513001  -0.000000
  161        1.558855  -0.000000
  162        1.559319  -0.000000
  163        1.610311  -0.000000
  164        1.612507  -0.000000
  165        1.694280  -0.000000
  166        1.787630  -0.000000
  167        1.812709  -0.000000
  168        1.833653  -0.000000
  169        1.852482  -0.000000
  170        1.876527  -0.000000
  171        1.897673  -0.000000
  172        1.901951  -0.000000
  173        1.961740  -0.000000
  174        2.007386  -0.000000
  175        2.057640  -0.000000
  176        2.100906  -0.000000
  177        2.315682  -0.000000
  178        2.322859  -0.000000
  179        2.384229  -0.000000
  180        2.454644  -0.000000
  181        2.660644  -0.000000
  182        2.692467  -0.000000
  183        2.884314  -0.000000
  184        3.185246  -0.000000

  0.2000000E+00  0.3742002E-15  0.1262379E-14  0.4444444E-01
    1      -13.838770   1.000000
    2      -13.134690   1.000000
    3      -12.644582   1.000000
    4      -12.245527   1.000000
    5      -11.982865   1.000000
    6      -11.711657   1.000000
    7      -11.551698   1.000000
    8      -11.274946   1.000000
    9      -11.255301   1.000000
   10      -11.176070   1.000000
   11      -11.036759   1.000000
   12      -11.031962   1.000000
   13      -10.874013   1.000000
   14      -10.725379   1.000000
   15      -10.658941   1.000000
   16      -10.572855   1.000000
   17      -10.469764   1.000000
   18      -10.211686   1.000000
   19      -10.020309   1.000000
   20       -9.613431   1.000000
   21       -9.588888   1.000000
   22       -9.465067   1.000000
   23       -9.337807   1.000000
   24       -9.314670   1.000000
   25       -9.183500   1.000000
   26       -8.802273   1.000000
   27       -8.446183   1.000000
   28       -8.438546   1.000000
   29       -8.245919   1.000000
   30       -8.134568   1.000000
   31       -8.056027   1.000000
   32       -7.994323   1.000000
   33       -7.651334   1.000000
   34       -7.556136   1.000000
   35       -7.413806   1.000000
   36       -7.241823   1.000000
   37       -7.088728   1.000000
   38       -7.031405   1.000000
   39       -6.905182   1.000000
   40       -6.732513   1.000000
   41       -6.639064   1.000000
   42       -6.617881   1.000000
   43       -6.570373   1.000000
   44       -6.503971   1.000000
   45       -6.438073   1.000000
   46       -6.297579   1.000000
   47       -6.094064   1.000000
   48       -6.085707   1.000000
   49       -6.052656   1.000000
   50       -5.941342   1.000000
   51       -5.912596   1.000000
   52       -5.780202   1.000000
   53       -5.670036   1.000000
   54       -5.582645   1.000000
   55       -5.490528   1.000000
   56       -5.452070   1.000000
   57       -5.371407   1.000000
   58       -5.354409   1.000000
   59       -5.259631   1.000000
   60       -5.255025   1.000000
   61       -5.215540   1.000000
   62       -5.101030   1.000000
   63       -5.025308   1.000000
   64       -4.766452   1.000000
   65       -4.666975   1.000000
   66       -4.568763   1.000000
   67       -4.559877   1.000000
   68       -4.549775   1.000000
   69       -4.478944   1.000000
   70       -4.297171   1.000000
   71       -4.247949   1.000000
   72       -4.165220   1.000000
   73       -4.104822   1.000000
   74       -4.086867   1.000000
   75       -4.069471   1.000000
   76       -4.050286   1.000000
   77       -3.957944   1.000000
   78       -3.917141   1.000000
   79       -3.854437   1.000000
   80       -3.849591   1.000000
   81       -3.822098   1.000000
   82       -3.821974   1.000000
   83       -3.733737   1.000000
   84       -3.670820   1.000000
   85       -3.603530   1.000000
   86       -3.564551   1.000000
   87       -3.516657   1.000000
   88       -3.481800   1.000000
   89       -3.471851   1.000000
   90       -3.412853   1.000000
   91       -3.402753   1.000000
   92       -3.220065   1.000000
   93       -3.210380   1.000000
   94       -3.099190   1.000000
   95       -3.052360   1.000000
   96       -2.899335   1.000000
   97       -2.885411   1.000000
   98       -2.774641   1.000000
   99       -2.659466   1.000000
  100       -2.627532   1.000000
  101       -2.592232   1.000000
  102       -2.313073   1.000000
  103       -2.271104   1.000000
  104       -2.212732   1.000000
  105       -2.208266   1.000000
  106       -2.155609   1.000000
  107       -2.107131   1.000000
  108       -2.032714   1.000000
  109       -1.962883   1.000000
  110       -1.931903   1.000000
  111       -1.886662   1.000000
  112       -1.817072   1.000000
  113       -1.806061   1.000000
  114       -1.673714   1.000000
  115       -1.618001   1.000000
  116       -1.617171   1.000000
  117       -1.606936   1.000000
  118       -1.550005   1.000000
  119       -1.510972   1.000000
  120       -1.424793   1.000000
  121       -1.356434   1.000000
  122       -1.001117   1.000000
  123       -0.943115   1.000000
  124       -0.940211   1.000000
  125       -0.863587   1.000000
  126       -0.690829   1.000000
  127       -0.652794   1.000000
  128       -0.450859   1.000000
  129       -0.443403   1.000000
  130       -0.397676   1.000000
  131       -0.319455   1.000000
  132       -0.170478   1.000000
  133       -0.080637   1.000000
  134        0.026798   1.000000
  135        0.153131   1.000000
  136        0.224668   1.000004
  137        0.252619   1.000025
  138        0.423361   1.026791
  139        0.454665   1.035403
  140        0.479500   1.020167
  141        0.554782   0.669443
  142        0.615820   0.186141
  143        0.714408  -0.032084
  144        0.747562  -0.017561
  145        0.771389  -0.009045
  146        0.807001  -0.002519
  147        0.818696  -0.001546
  148        0.824088  -0.001221
  149        0.857295  -0.000246
  150        0.862990  -0.000183
  151        1.191838  -0.000000
  152        1.218635  -0.000000
  153        1.294254  -0.000000
  154        1.330058  -0.000000
  155        1.395816  -0.000000
  156        1.401883  -0.000000
  157        1.439009  -0.000000
  158        1.446013  -0.000000
  159        1.545816  -0.000000
  160        1.570466  -0.000000
  161        1.597575  -0.000000
  162        1.609218  -0.000000
  163        1.628305  -0.000000
  164        1.659569  -0.000000
  165        1.705657  -0.000000
  166        1.713354  -0.000000
  167        1.797720  -0.000000
  168        1.839286  -0.000000
  169        1.867005  -0.000000
  170        1.883529  -0.000000
  171        1.963448  -0.000000
  172        1.996958  -0.000000
  173        2.042056  -0.000000
  174        2.057144  -0.000000
  175        2.155880  -0.000000
  176        2.187993  -0.000000
  177        2.246888  -0.000000
  178        2.275442  -0.000000
  179        2.346350  -0.000000
  180        2.457653  -0.000000
  181        2.700479  -0.000000
  182        2.937028  -0.000000
  183        3.256986  -0.000000
  184        3.557554   0.000000

  0.4000000E+00  0.3742002E-15  0.1262379E-14  0.4444444E-01
    1      -13.695086   1.000000
    2      -13.456696   1.000000
    3      -12.523619   1.000000
    4      -12.268698   1.000000
    5      -11.709804   1.000000
    6      -11.679598   1.000000
    7      -11.624844   1.000000
    8      -11.201304   1.000000
    9      -11.180229   1.000000
   10      -11.156964   1.000000
   11      -11.060645   1.000000
   12      -11.006309   1.000000
   13      -10.862332   1.000000
   14      -10.782095   1.000000
   15      -10.759464   1.000000
   16      -10.668039   1.000000
   17      -10.571549   1.000000
   18      -10.346395   1.000000
   19      -10.129667   1.000000
   20       -9.764867   1.000000
   21       -9.552075   1.000000
   22       -9.418870   1.000000
   23       -9.308732   1.000000
   24       -9.201045   1.000000
   25       -9.056787   1.000000
   26       -8.772998   1.000000
   27       -8.365303   1.000000
   28       -8.308619   1.000000
   29       -8.184093   1.000000
   30       -8.080657   1.000000
   31       -7.806451   1.000000
   32       -7.785691   1.000000
   33       -7.747329   1.000000
   34       -7.636446   1.000000
   35       -7.592857   1.000000
   36       -7.492985   1.000000
   37       -7.313180   1.000000
   38       -7.259068   1.000000
   39       -7.053275   1.000000
   40       -6.870210   1.000000
   41       -6.779959   1.000000
   42       -6.451953   1.000000
   43       -6.440407   1.000000
   44       -6.403169   1.000000
   45       -6.362499   1.000000
   46       -6.240073   1.000000
   47       -6.083758   1.000000
   48       -6.064556   1.000000
   49       -5.985668   1.000000
   50       -5.890098   1.000000
   51       -5.870595   1.000000
   52       -5.745717   1.000000
   53       -5.738545   1.000000
   54       -5.594271   1.000000
   55       -5.540715   1.000000
   56       -5.467798   1.000000
   57       -5.386261   1.000000
   58       -5.236737   1.000000
   59       -5.209110   1.000000
   60       -5.169140   1.000000
   61       -5.044732   1.000000
   62       -4.969268   1.000000
   63       -4.952053   1.000000
   64       -4.752708   1.000000
   65       -4.745453   1.000000
   66       -4.706698   1.000000
   67       -4.634947   1.000000
   68       -4.581745   1.000000
   69       -4.513925   1.000000
   70       -4.349953   1.000000
   71       -4.323587   1.000000
   72       -4.257371   1.000000
   73       -4.149204   1.000000
   74       -4.121888   1.000000
   75       -4.072017   1.000000
   76       -4.033354   1.000000
   77       -4.005277   1.000000
   78       -3.839286   1.000000
   79       -3.818217   1.000000
   80       -3.770452   1.000000
   81       -3.756842   1.000000
   82       -3.755459   1.000000
   83       -3.704391   1.000000
   84       -3.689426   1.000000
   85       -3.603591   1.000000
   86       -3.565922   1.000000
   87       -3.538546   1.000000
   88       -3.527230   1.000000
   89       -3.392209   1.000000
   90       -3.358995   1.000000
   91       -3.309038   1.000000
   92       -3.292058   1.000000
   93       -3.248399   1.000000
   94       -3.183258   1.000000
   95       -3.156241   1.000000
   96       -2.993675   1.000000
   97       -2.958988   1.000000
   98       -2.905130   1.000000
   99       -2.775850   1.000000
  100       -2.671153   1.000000
  101       -2.400355   1.000000
  102       -2.391390   1.000000
  103       -2.282630   1.000000
  104       -2.263625   1.000000
  105       -2.186724   1.000000
  106       -2.050745   1.000000
  107       -1.953178   1.000000
  108       -1.950641   1.000000
  109       -1.938600   1.000000
  110       -1.921270   1.000000
  111       -1.809262   1.000000
  112       -1.797107   1.000000
  113       -1.673851   1.000000
  114       -1.665376   1.000000
  115       -1.603170   1.000000
  116       -1.520972   1.000000
  117       -1.463493   1.000000
  118       -1.373622   1.000000
  119       -1.371815   1.000000
  120       -1.281389   1.000000
  121       -1.212797   1.000000
  122       -1.105766   1.000000
  123       -1.082029   1.000000
  124       -1.070558   1.000000
  125       -1.040230   1.000000
  126       -0.781786   1.000000
  127       -0.768219   1.000000
  128       -0.738544   1.000000
  129       -0.628957   1.000000
  130       -0.530728   1.000000
  131       -0.441172   1.000000
  132       -0.363211   1.000000
  133       -0.076373   1.000000
  134       -0.039604   1.000000
  135        0.102112   1.000000
  136        0.162837   1.000000
  137        0.346836   1.002873
  138        0.378914   1.008976
  139        0.395343   1.014458
  140        0.476562   1.023737
  141        0.536062   0.805240
  142        0.614282   0.196084
  143        0.689486  -0.034284
  144        0.787462  -0.005287
  145        0.796860  -0.003745
  146        0.832833  -0.000821
  147        0.847397  -0.000407
  148        0.888365  -0.000044
  149        1.050833  -0.000000
  150        1.074270  -0.000000
  151        1.176635  -0.000000
  152        1.199064  -0.000000
  153        1.335413  -0.000000
  154        1.366665  -0.000000
  155        1.437321  -0.000000
  156        1.499087  -0.000000
  157        1.510687  -0.000000
  158        1.550634  -0.000000
  159        1.631210  -0.000000
  160        1.635300  -0.000000
  161        1.642651  -0.000000
  162        1.672878  -0.000000
  163        1.696692  -0.000000
  164        1.723706  -0.000000
  165        1.734971  -0.000000
  166        1.765892  -0.000000
  167        1.779583  -0.000000
  168        1.812384  -0.000000
  169        1.873045  -0.000000
  170        1.898821  -0.000000
  171        1.940494  -0.000000
  172        1.954380  -0.000000
  173        1.974246  -0.000000
  174        2.114091  -0.000000
  175        2.126554  -0.000000
  176        2.168905  -0.000000
  177        2.196505  -0.000000
  178        2.316185  -0.000000
  179        2.684792  -0.000000
  180        2.729084  -0.000000
  181        2.908256  -0.000000
  182        3.097051  -0.000000
  183        3.278107  -0.000000
  184        3.596804   0.000000

  0.3742002E-15  0.1111111E+00  0.1262379E-14  0.4444444E-01
    1      -13.840307   1.000000
    2      -12.748902   1.000000
    3      -12.652221   1.000000
    4      -12.624483   1.000000
    5      -11.826322   1.000000
    6      -11.660738   1.000000
    7      -11.535561   1.000000
    8      -11.513638   1.000000
    9      -11.367692   1.000000
   10      -11.228256   1.000000
   11      -11.132922   1.000000
   12      -10.991229   1.000000
   13      -10.961747   1.000000
   14      -10.713926   1.000000
   15      -10.599787   1.000000
   16      -10.402353   1.000000
   17      -10.141356   1.000000
   18      -10.057936   1.000000
   19       -9.998393   1.000000
   20       -9.702706   1.000000
   21       -9.643657   1.000000
   22       -9.602909   1.000000
   23       -9.502795   1.000000
   24       -9.352823   1.000000
   25       -8.908825   1.000000
   26       -8.816762   1.000000
   27       -8.570188   1.000000
   28       -8.545123   1.000000
   29       -8.391484   1.000000
   30       -8.251657   1.000000
   31       -7.927762   1.000000
   32       -7.820263   1.000000
   33       -7.776614   1.000000
   34       -7.652890   1.000000
   35       -7.331874   1.000000
   36       -7.242210   1.000000
   37       -6.960661   1.000000
   38       -6.879321   1.000000
   39       -6.821239   1.000000
   40       -6.613351   1.000000
   41       -6.590236   1.000000
   42       -6.541898   1.000000
   43       -6.528851   1.000000
   44       -6.516150   1.000000
   45       -6.437499   1.000000
   46       -6.334236   1.000000
   47       -6.322742   1.000000
   48       -6.122619   1.000000
   49       -6.075613   1.000000
   50       -6.009637   1.000000
   51       -5.917831   1.000000
   52       -5.751958   1.000000
   53       -5.694280   1.000000
   54       -5.629640   1.000000
   55       -5.558477   1.000000
   56       -5.479867   1.000000
   57       -5.443028   1.000000
   58       -5.383212   1.000000
   59       -5.185520   1.000000
   60       -5.184460   1.000000
   61       -5.154419   1.000000
   62       -5.092689   1.000000
   63       -4.875770   1.000000
   64       -4.682506   1.000000
   65       -4.669010   1.000000
   66       -4.557662   1.000000
   67       -4.556382   1.000000
   68       -4.494330   1.000000
   69       -4.455598   1.000000
   70       -4.323191   1.000000
   71       -4.285382   1.000000
   72       -4.164731   1.000000
   73       -4.151491   1.000000
   74       -4.098108   1.000000
   75       -4.071612   1.000000
   76       -4.056111   1.000000
   77       -4.022157   1.000000
   78       -3.951285   1.000000
   79       -3.948835   1.000000
   80       -3.903597   1.000000
   81       -3.836049   1.000000
   82       -3.810489   1.000000
   83       -3.792698   1.000000
   84       -3.744550   1.000000
   85       -3.680824   1.000000
   86       -3.605937   1.000000
   87       -3.569835   1.000000
   88       -3.527368   1.000000
   89       -3.424229   1.000000
   90       -3.422439   1.000000
   91       -3.386018   1.000000
   92       -3.223470   1.000000
   93       -3.152884   1.000000
   94       -3.071722   1.000000
   95       -2.856904   1.000000
   96       -2.815190   1.000000
   97       -2.809647   1.000000
   98       -2.715271   1.000000
   99       -2.683711   1.000000
  100       -2.537065   1.000000
  101       -2.465224   1.000000
  102       -2.457337   1.000000
  103       -2.386470   1.000000
  104       -2.355662   1.000000
  105       -2.280902   1.000000
  106       -2.163281   1.000000
  107       -2.115006   1.000000
  108       -2.080013   1.000000
  109       -2.023711   1.000000
  110       -1.987792   1.000000
  111       -1.970948   1.000000
  112       -1.823818   1.000000
  113       -1.782473   1.000000
  114       -1.774324   1.000000
  115       -1.697216   1.000000
  116       -1.683955   1.000000
  117       -1.604188   1.000000
  118       -1.569917   1.000000
  119       -1.480677   1.000000
  120       -1.448839   1.000000
  121       -1.406864   1.000000
  122       -0.994585   1.000000
  123       -0.984548   1.000000
  124       -0.825451   1.000000
  125       -0.744341   1.000000
  126       -0.643621   1.000000
  127       -0.584790   1.000000
  128       -0.518034   1.000000
  129       -0.486033   1.000000
  130       -0.257833   1.000000
  131       -0.174253   1.000000
  132       -0.145304   1.000000
  133        0.011174   1.000000
  134        0.133753   1.000000
  135        0.170749   1.000000
  136        0.331641   1.001532
  137        0.359605   1.004665
  138        0.391014   1.012848
  139        0.409988   1.020644
  140        0.434769   1.031586
  141        0.435703   1.031928
  142        0.503688   0.965286
  143        0.582932   0.435398
  144        0.667508  -0.015078
  145        0.699301  -0.035422
  146        0.701233  -0.035279
  147        0.821201  -0.001386
  148        0.876965  -0.000085
  149        0.920568  -0.000006
  150        1.099590  -0.000000
  151        1.176338  -0.000000
  152        1.211950  -0.000000
  153        1.225967  -0.000000
  154        1.356343  -0.000000
  155        1.372863  -0.000000
  156        1.379378  -0.000000
  157        1.408903  -0.000000
  158        1.481316  -0.000000
  159        1.530362  -0.000000
  160        1.562089  -0.000000
  161        1.564983  -0.000000
  162        1.573520  -0.000000
  163        1.609947  -0.000000
  164        1.610432  -0.000000
  165        1.684158  -0.000000
  166        1.773516  -0.000000
  167        1.831525  -0.000000
  168        1.836015  -0.000000
  169        1.836807  -0.000000
  170        1.851716  -0.000000
  171        1.900456  -0.000000
  172        1.929680  -0.000000
  173        1.945835  -0.000000
  174        1.958202  -0.000000
  175        2.032156  -0.000000
  176        2.091366  -0.000000
  177        2.125258  -0.000000
  178        2.145128  -0.000000
  179        2.380378  -0.000000
  180        2.481275  -0.000000
  181        2.538207  -0.000000
  182        2.644959  -0.000000
  183        2.743579  -0.000000
  184        3.225082  -0.000000

  0.2000000E+00  0.1111111E+00  0.1262379E-14  0.4444444E-01
    1      -13.792309   1.000000
    2      -13.094198   1.000000
    3      -12.605615   1.000000
    4      -12.213931   1.000000
    5      -11.949846   1.000000
    6      -11.812018   1.000000
    7      -11.606269   1.000000
    8      -11.278221   1.000000
    9      -11.254559   1.000000
   10      -11.217376   1.000000
   11      -11.053907   1.000000
   12      -11.012712   1.000000
   13      -10.873176   1.000000
   14      -10.727107   1.000000
   15      -10.654071   1.000000
   16      -10.555672   1.000000
   17      -10.451695   1.000000
   18      -10.217360   1.000000
   19      -10.005742   1.000000
   20       -9.608975   1.000000
   21       -9.565281   1.000000
   22       -9.484715   1.000000
   23       -9.333119   1.000000
   24       -9.325796   1.000000
   25       -9.185210   1.000000
   26       -8.793898   1.000000
   27       -8.480315   1.000000
   28       -8.426697   1.000000
   29       -8.254759   1.000000
   30       -8.126980   1.000000
   31       -8.062426   1.000000
   32       -7.860534   1.000000
   33       -7.696108   1.000000
   34       -7.545729   1.000000
   35       -7.495794   1.000000
   36       -7.321920   1.000000
   37       -7.022246   1.000000
   38       -7.003469   1.000000
   39       -6.879772   1.000000
   40       -6.723275   1.000000
   41       -6.707003   1.000000
   42       -6.625694   1.000000
   43       -6.534490   1.000000
   44       -6.496218   1.000000
   45       -6.430142   1.000000
   46       -6.386460   1.000000
   47       -6.196306   1.000000
   48       -6.095355   1.000000
   49       -5.999983   1.000000
   50       -5.867777   1.000000
   51       -5.833620   1.000000
   52       -5.772750   1.000000
   53       -5.667803   1.000000
   54       -5.558996   1.000000
   55       -5.511399   1.000000
   56       -5.411169   1.000000
   57       -5.381865   1.000000
   58       -5.341296   1.000000
   59       -5.236725   1.000000
   60       -5.190132   1.000000
   61       -5.157055   1.000000
   62       -5.062338   1.000000
   63       -5.007864   1.000000
   64       -4.780493   1.000000
   65       -4.624582   1.000000
   66       -4.594858   1.000000
   67       -4.545669   1.000000
   68       -4.482562   1.000000
   69       -4.455071   1.000000
   70       -4.312562   1.000000
   71       -4.260324   1.000000
   72       -4.170054   1.000000
   73       -4.131898   1.000000
   74       -4.092268   1.000000
   75       -4.074265   1.000000
   76       -4.057121   1.000000
   77       -4.032030   1.000000
   78       -3.968948   1.000000
   79       -3.937423   1.000000
   80       -3.901265   1.000000
   81       -3.868339   1.000000
   82       -3.840054   1.000000
   83       -3.784780   1.000000
   84       -3.675628   1.000000
   85       -3.653274   1.000000
   86       -3.610419   1.000000
   87       -3.560042   1.000000
   88       -3.541608   1.000000
   89       -3.455200   1.000000
   90       -3.394162   1.000000
   91       -3.352820   1.000000
   92       -3.232023   1.000000
   93       -3.133032   1.000000
   94       -3.101207   1.000000
   95       -2.941975   1.000000
   96       -2.915768   1.000000
   97       -2.879111   1.000000
   98       -2.754302   1.000000
   99       -2.676739   1.000000
  100       -2.654136   1.000000
  101       -2.570751   1.000000
  102       -2.381132   1.000000
  103       -2.313439   1.000000
  104       -2.245436   1.000000
  105       -2.207663   1.000000
  106       -2.172129   1.000000
  107       -2.116652   1.000000
  108       -2.086912   1.000000
  109       -1.972268   1.000000
  110       -1.957171   1.000000
  111       -1.876497   1.000000
  112       -1.817487   1.000000
  113       -1.778477   1.000000
  114       -1.726301   1.000000
  115       -1.709336   1.000000
  116       -1.614617   1.000000
  117       -1.603255   1.000000
  118       -1.542558   1.000000
  119       -1.464702   1.000000
  120       -1.422578   1.000000
  121       -1.350178   1.000000
  122       -1.055395   1.000000
  123       -0.987656   1.000000
  124       -0.917775   1.000000
  125       -0.826593   1.000000
  126       -0.725808   1.000000
  127       -0.691573   1.000000
  128       -0.623030   1.000000
  129       -0.381932   1.000000
  130       -0.322609   1.000000
  131       -0.217815   1.000000
  132       -0.101926   1.000000
  133        0.054456   1.000000
  134        0.066852   1.000000
  135        0.139184   1.000000
  136        0.143136   1.000000
  137        0.252175   1.000024
  138        0.300295   1.000353
  139        0.404654   1.018278
  140        0.505994   0.957333
  141        0.536332   0.803484
  142        0.578659   0.471363
  143        0.610925   0.218497
  144        0.626753   0.121886
  145        0.719261  -0.030228
  146        0.746229  -0.018133
  147        0.834423  -0.000762
  148        0.976714  -0.000000
  149        1.005868  -0.000000
  150        1.037722  -0.000000
  151        1.156417  -0.000000
  152        1.229945  -0.000000
  153        1.322712  -0.000000
  154        1.336451  -0.000000
  155        1.427586  -0.000000
  156        1.462158  -0.000000
  157        1.473645  -0.000000