 running on   72 total cores
 distrk:  each k-point on   72 cores,    1 groups
 distr:  one band on    9 cores,    8 groups
 using from now: INCAR     
 vasp.5.4.4.18Apr17-6-g9f103f2a35 (build Dec  7 2020 12:43:57) complex           
 POSCAR found type information on POSCAR  Mo V  B  H 
 POSCAR found :  4 types and      74 ions
 scaLAPACK will be used

 ----------------------------------------------------------------------------- 
|                                                                             |
|  ADVICE TO THIS USER RUNNING 'VASP/VAMP'   (HEAR YOUR MASTER'S VOICE ...):  |
|                                                                             |
|      You enforced a specific xc-type in the INCAR file,                     |
|      a different type was found on the POTCAR file                          |
|          I HOPE YOU KNOW, WHAT YOU ARE  DOING                               |
|                                                                             |
 ----------------------------------------------------------------------------- 

 LDA part: xc-table for Pade appr. of Perdew
 POSCAR, INCAR and KPOINTS ok, starting setup
 resort distribution
 resort distribution
 resort distribution
 resort distribution
 resort distribution
 resort distribution
 resort distribution
 resort distribution
 resort distribution
 resort distribution
 resort distribution
 resort distribution
 resort distribution
 resort distribution
 resort distribution
 resort distribution
 resort distribution
 resort distribution
 resort distribution
 resort distribution
 resort distribution
 resort distribution
 resort distribution
 resort distribution
 resort distribution
 resort distribution
 resort distribution
 resort distribution
 resort distribution
 resort distribution
 resort distribution
 resort distribution
 resort distribution
 resort distribution
 resort distribution
 resort distribution
 resort distribution
 resort distribution
 resort distribution
 resort distribution
 resort distribution
 resort distribution
 resort distribution
 resort distribution
 resort distribution
 resort distribution
 resort distribution
 resort distribution
 resort distribution
 resort distribution
 resort distribution
 resort distribution
 resort distribution
 resort distribution
 resort distribution
 resort distribution
 resort distribution
 resort distribution
 resort distribution
 resort distribution
 resort distribution
 resort distribution
 resort distribution
 resort distribution
 resort distribution
 resort distribution
 resort distribution
 resort distribution
 resort distribution
 resort distribution
 resort distribution
 resort distribution
 FFT: planning ...
 WAVECAR not read
 augmentation electrons   284.06515120953475     
 soft         electrons   0.0000000000000000     
 augmentation electrons   284.06515120953475     
 soft         electrons   0.0000000000000000     
 augmentation electrons   284.06515120953475     
 soft         electrons   0.0000000000000000     
 augmentation electrons   284.06515120953475     
 soft         electrons   0.0000000000000000     
 augmentation electrons   284.06515120953475     
 soft         electrons   0.0000000000000000     
 augmentation electrons   284.06515120953475     
 soft         electrons   0.0000000000000000     
 augmentation electrons   284.06515120953475     
 soft         electrons   0.0000000000000000     
 augmentation electrons   284.06515120953475     
 soft         electrons   0.0000000000000000     
 augmentation electrons   284.06515120953475     
 soft         electrons   0.0000000000000000     
 augmentation electrons   284.06515120953475     
 soft         electrons   0.0000000000000000     
 augmentation electrons   284.06515120953475     
 soft         electrons   0.0000000000000000     
 augmentation electrons   284.06515120953475     
 soft         electrons   0.0000000000000000     
 augmentation electrons   284.06515120953475     
 soft         electrons   0.0000000000000000     
 augmentation electrons   284.06515120953475     
 soft         electrons   0.0000000000000000     
 augmentation electrons   284.06515120953475     
 soft         electrons   0.0000000000000000     
 augmentation electrons   284.06515120953475     
 soft         electrons   0.0000000000000000     
 augmentation electrons   284.06515120953475     
 soft         electrons   0.0000000000000000     
 augmentation electrons   284.06515120953475     
 soft         electrons   0.0000000000000000     
 augmentation electrons   284.06515120953475     
 soft         electrons   0.0000000000000000     
 augmentation electrons   284.06515120953475     
 soft         electrons   0.0000000000000000     
 augmentation electrons   284.06515120953475     
 soft         electrons   0.0000000000000000     
 augmentation electrons   284.06515120953475     
 soft         electrons   0.0000000000000000     
 augmentation electrons   284.06515120953475     
 soft         electrons   0.0000000000000000     
 augmentation electrons   284.06515120953475     
 soft         electrons   0.0000000000000000     
 augmentation electrons   284.06515120953475     
 soft         electrons   0.0000000000000000     
 augmentation electrons   284.06515120953475     
 soft         electrons   0.0000000000000000     
 augmentation electrons   284.06515120953475     
 soft         electrons   0.0000000000000000     
 augmentation electrons   284.06515120953475     
 soft         electrons   0.0000000000000000     
 augmentation electrons   284.06515120953475     
 soft         electrons   0.0000000000000000     
 augmentation electrons   284.06515120953475     
 soft         electrons   0.0000000000000000     
 augmentation electrons   284.06515120953475     
 soft         electrons   0.0000000000000000     
 augmentation electrons   284.06515120953475     
 soft         electrons   0.0000000000000000     
 augmentation electrons   284.06515120953475     
 soft         electrons   0.0000000000000000     
 augmentation electrons   284.06515120953475     
 soft         electrons   0.0000000000000000     
 augmentation electrons   284.06515120953475     
 soft         electrons   0.0000000000000000     
 augmentation electrons   284.06515120953475     
 soft         electrons   0.0000000000000000     
 augmentation electrons   284.06515120953475     
 soft         electrons   0.0000000000000000     
 augmentation electrons   284.06515120953475     
 soft         electrons   0.0000000000000000     
 augmentation electrons   284.06515120953475     
 soft         electrons   0.0000000000000000     
 augmentation electrons   284.06515120953475     
 soft         electrons   0.0000000000000000     
 augmentation electrons   284.06515120953475     
 soft         electrons   0.0000000000000000     
 augmentation electrons   284.06515120953475     
 soft         electrons   0.0000000000000000     
 augmentation electrons   284.06515120953475     
 soft         electrons   0.0000000000000000     
 augmentation electrons   284.06515120953475     
 soft         electrons   0.0000000000000000     
 augmentation electrons   284.06515120953475     
 soft         electrons   0.0000000000000000     
 augmentation electrons   284.06515120953475     
 soft         electrons   0.0000000000000000     
 augmentation electrons   284.06515120953475     
 soft         electrons   0.0000000000000000     
 augmentation electrons   284.06515120953475     
 soft         electrons   0.0000000000000000     
 augmentation electrons   284.06515120953475     
 soft         electrons   0.0000000000000000     
 augmentation electrons   284.06515120953475     
 soft         electrons   0.0000000000000000     
 augmentation electrons   284.06515120953475     
 soft         electrons   0.0000000000000000     
 augmentation electrons   284.06515120953475     
 soft         electrons   0.0000000000000000     
 augmentation electrons   284.06515120953475     
 soft         electrons   0.0000000000000000     
 augmentation electrons   284.06515120953475     
 soft         electrons   0.0000000000000000     
 augmentation electrons   284.06515120953475     
 soft         electrons   0.0000000000000000     
 augmentation electrons   284.06515120953475     
 soft         electrons   0.0000000000000000     
 augmentation electrons   284.06515120953475     
 augmentation electrons   284.06515120953475     
 soft         electrons   0.0000000000000000     
 augmentation electrons   284.06515120953475     
 soft         electrons   0.0000000000000000     
 augmentation electrons   284.06515120953475     
 soft         electrons   0.0000000000000000     
 augmentation electrons   284.06515120953475     
 soft         electrons   0.0000000000000000     
 augmentation electrons   284.06515120953475     
 soft         electrons   0.0000000000000000     
 augmentation electrons   284.06515120953475     
 soft         electrons   0.0000000000000000     
 augmentation electrons   284.06515120953475     
 soft         electrons   0.0000000000000000     
 augmentation electrons   284.06515120953475     
 soft         electrons   0.0000000000000000     
 augmentation electrons   284.06515120953475     
 soft         electrons   0.0000000000000000     
 augmentation electrons   284.06515120953475     
 soft         electrons   0.0000000000000000     
 augmentation electrons   284.06515120953475     
 soft         electrons   0.0000000000000000     
 augmentation electrons   284.06515120953475     
 soft         electrons   0.0000000000000000     
 augmentation electrons   284.06515120953475     
 soft         electrons   0.0000000000000000     
 augmentation electrons   284.06515120953475     
 soft         electrons   0.0000000000000000     
 soft         electrons   0.0000000000000000     
 augmentation electrons   284.06515120953475     
 soft         electrons   0.0000000000000000     
 total        electrons   284.06515120953475     
 total        electrons   284.06515120953475     
 total        electrons   284.06515120953475     
 total        electrons   284.06515120953475     
 total        electrons   284.06515120953475     
 total        electrons   284.06515120953475     
 total        electrons   284.06515120953475     
 total        electrons   284.06515120953475     
 total        electrons   284.06515120953475     
 total        electrons   284.06515120953475     
 total        electrons   284.06515120953475     
 total        electrons   284.06515120953475     
 total        electrons   284.06515120953475     
 total        electrons   284.06515120953475     
 total        electrons   284.06515120953475     
 total        electrons   284.06515120953475     
 total        electrons   284.06515120953475     
 total        electrons   284.06515120953475     
 total        electrons   284.06515120953475     
 total        electrons   284.06515120953475     
 total        electrons   284.06515120953475     
 total        electrons   284.06515120953475     
 total        electrons   284.06515120953475     
 total        electrons   284.06515120953475     
 total        electrons   284.06515120953475     
 total        electrons   284.06515120953475     
 total        electrons   284.06515120953475     
 total        electrons   284.06515120953475     
 total        electrons   284.06515120953475     
 total        electrons   284.06515120953475     
 total        electrons   284.06515120953475     
 total        electrons   284.06515120953475     
 total        electrons   284.06515120953475     
 total        electrons   284.06515120953475     
 total        electrons   284.06515120953475     
 total        electrons   284.06515120953475     
 total        electrons   284.06515120953475     
 total        electrons   284.06515120953475     
 total        electrons   284.06515120953475     
 total        electrons   284.06515120953475     
 total        electrons   284.06515120953475     
 total        electrons   284.06515120953475     
 total        electrons   284.06515120953475     
 total        electrons   284.06515120953475     
 total        electrons   284.06515120953475     
 total        electrons   284.06515120953475     
 total        electrons   284.06515120953475     
 total        electrons   284.06515120953475     
 total        electrons   284.06515120953475     
 total        electrons   284.06515120953475     
 total        electrons   284.06515120953475     
 total        electrons   284.06515120953475     
 total        electrons   284.06515120953475     
 total        electrons   284.06515120953475     
 total        electrons   284.06515120953475     
 total        electrons   284.06515120953475     
 total        electrons   284.06515120953475     
 total        electrons   284.06515120953475     
 total        electrons   284.06515120953475     
 total        electrons   284.06515120953475     
 total        electrons   284.06515120953475     
 total        electrons   284.06515120953475     
 total        electrons   284.06515120953475     
 total        electrons   284.06515120953475     
 total        electrons   284.06515120953475     
 total        electrons   284.06515120953475     
 total        electrons   284.06515120953475     
 total        electrons   284.06515120953475     
 total        electrons   284.06515120953475     
 total        electrons   284.06515120953475     
 total        electrons   284.06515120953475     
 total        electrons   284.06515120953475     
 augmentation electrons   1284.9953543078657     
 soft         electrons   0.0000000000000000     
 augmentation electrons   1284.9953543078657     
 soft         electrons   0.0000000000000000     
 augmentation electrons   1284.9953543078657     
 soft         electrons   0.0000000000000000     
 augmentation electrons   1284.9953543078657     
 soft         electrons   0.0000000000000000     
 augmentation electrons   1284.9953543078657     
 soft         electrons   0.0000000000000000     
 augmentation electrons   1284.9953543078657     
 soft         electrons   0.0000000000000000     
 augmentation electrons   1284.9953543078657     
 soft         electrons   0.0000000000000000     
 augmentation electrons   1284.9953543078657     
 soft         electrons   0.0000000000000000     
 augmentation electrons   1284.9953543078657     
 soft         electrons   0.0000000000000000     
 augmentation electrons   1284.9953543078657     
 soft         electrons   0.0000000000000000     
 augmentation electrons   1284.9953543078657     
 soft         electrons   0.0000000000000000     
 augmentation electrons   1284.9953543078657     
 soft         electrons   0.0000000000000000     
 augmentation electrons   1284.9953543078657     
 soft         electrons   0.0000000000000000     
 augmentation electrons   1284.9953543078657     
 soft         electrons   0.0000000000000000     
 augmentation electrons   1284.9953543078657     
 soft         electrons   0.0000000000000000     
 augmentation electrons   1284.9953543078657     
 soft         electrons   0.0000000000000000     
 augmentation electrons   1284.9953543078657     
 soft         electrons   0.0000000000000000     
 augmentation electrons   1284.9953543078657     
 soft         electrons   0.0000000000000000     
 augmentation electrons   1284.9953543078657     
 soft         electrons   0.0000000000000000     
 augmentation electrons   1284.9953543078657     
 soft         electrons   0.0000000000000000     
 augmentation electrons   1284.9953543078657     
 soft         electrons   0.0000000000000000     
 augmentation electrons   1284.9953543078657     
 soft         electrons   0.0000000000000000     
 augmentation electrons   1284.9953543078657     
 soft         electrons   0.0000000000000000     
 augmentation electrons   1284.9953543078657     
 soft         electrons   0.0000000000000000     
 augmentation electrons   1284.9953543078657     
 soft         electrons   0.0000000000000000     
 augmentation electrons   1284.9953543078657     
 soft         electrons   0.0000000000000000     
 augmentation electrons   1284.9953543078657     
 soft         electrons   0.0000000000000000     
 augmentation electrons   1284.9953543078657     
 soft         electrons   0.0000000000000000     
 augmentation electrons   1284.9953543078657     
 augmentation electrons   1284.9953543078657     
 soft         electrons   0.0000000000000000     
 augmentation electrons   1284.9953543078657     
 soft         electrons   0.0000000000000000     
 augmentation electrons   1284.9953543078657     
 soft         electrons   0.0000000000000000     
 augmentation electrons   1284.9953543078657     
 soft         electrons   0.0000000000000000     
 augmentation electrons   1284.9953543078657     
 soft         electrons   0.0000000000000000     
 augmentation electrons   1284.9953543078657     
 soft         electrons   0.0000000000000000     
 augmentation electrons   1284.9953543078657     
 soft         electrons   0.0000000000000000     
 augmentation electrons   1284.9953543078657     
 soft         electrons   0.0000000000000000     
 augmentation electrons   1284.9953543078657     
 soft         electrons   0.0000000000000000     
 augmentation electrons   1284.9953543078657     
 soft         electrons   0.0000000000000000     
 augmentation electrons   1284.9953543078657     
 soft         electrons   0.0000000000000000     
 augmentation electrons   1284.9953543078657     
 soft         electrons   0.0000000000000000     
 augmentation electrons   1284.9953543078657     
 soft         electrons   0.0000000000000000     
 augmentation electrons   1284.9953543078657     
 soft         electrons   0.0000000000000000     
 augmentation electrons   1284.9953543078657     
 soft         electrons   0.0000000000000000     
 augmentation electrons   1284.9953543078657     
 soft         electrons   0.0000000000000000     
 augmentation electrons   1284.9953543078657     
 soft         electrons   0.0000000000000000     
 augmentation electrons   1284.9953543078657     
 soft         electrons   0.0000000000000000     
 augmentation electrons   1284.9953543078657     
 soft         electrons   0.0000000000000000     
 augmentation electrons   1284.9953543078657     
 soft         electrons   0.0000000000000000     
 augmentation electrons   1284.9953543078657     
 soft         electrons   0.0000000000000000     
 augmentation electrons   1284.9953543078657     
 soft         electrons   0.0000000000000000     
 augmentation electrons   1284.9953543078657     
 soft         electrons   0.0000000000000000     
 augmentation electrons   1284.9953543078657     
 soft         electrons   0.0000000000000000     
 augmentation electrons   1284.9953543078657     
 soft         electrons   0.0000000000000000     
 augmentation electrons   1284.9953543078657     
 soft         electrons   0.0000000000000000     
 augmentation electrons   1284.9953543078657     
 soft         electrons   0.0000000000000000     
 augmentation electrons   1284.9953543078657     
 soft         electrons   0.0000000000000000     
 augmentation electrons   1284.9953543078657     
 soft         electrons   0.0000000000000000     
 augmentation electrons   1284.9953543078657     
 soft         electrons   0.0000000000000000     
 augmentation electrons   1284.9953543078657     
 soft         electrons   0.0000000000000000     
 augmentation electrons   1284.9953543078657     
 soft         electrons   0.0000000000000000     
 augmentation electrons   1284.9953543078657     
 soft         electrons   0.0000000000000000     
 augmentation electrons   1284.9953543078657     
 soft         electrons   0.0000000000000000     
 augmentation electrons   1284.9953543078657     
 soft         electrons   0.0000000000000000     
 augmentation electrons   1284.9953543078657     
 soft         electrons   0.0000000000000000     
 augmentation electrons   1284.9953543078657     
 soft         electrons   0.0000000000000000     
 augmentation electrons   1284.9953543078657     
 soft         electrons   0.0000000000000000     
 augmentation electrons   1284.9953543078657     
 soft         electrons   0.0000000000000000     
 augmentation electrons   1284.9953543078657     
 soft         electrons   0.0000000000000000     
 augmentation electrons   1284.9953543078657     
 soft         electrons   0.0000000000000000     
 augmentation electrons   1284.9953543078657     
 soft         electrons   0.0000000000000000     
 augmentation electrons   1284.9953543078657     
 soft         electrons   0.0000000000000000     
 soft         electrons   0.0000000000000000     
 total        electrons   1284.9953543078657     
 total        electrons   1284.9953543078657     
 total        electrons   1284.9953543078657     
 total        electrons   1284.9953543078657     
 total        electrons   1284.9953543078657     
 total        electrons   1284.9953543078657     
 total        electrons   1284.9953543078657     
 total        electrons   1284.9953543078657     
 total        electrons   1284.9953543078657     
 total        electrons   1284.9953543078657     
 total        electrons   1284.9953543078657     
 total        electrons   1284.9953543078657     
 total        electrons   1284.9953543078657     
 total        electrons   1284.9953543078657     
 total        electrons   1284.9953543078657     
 total        electrons   1284.9953543078657     
 total        electrons   1284.9953543078657     
 total        electrons   1284.9953543078657     
 total        electrons   1284.9953543078657     
 total        electrons   1284.9953543078657     
 total        electrons   1284.9953543078657     
 total        electrons   1284.9953543078657     
 total        electrons   1284.9953543078657     
 total        electrons   1284.9953543078657     
 total        electrons   1284.9953543078657     
 total        electrons   1284.9953543078657     
 total        electrons   1284.9953543078657     
 total        electrons   1284.9953543078657     
 total        electrons   1284.9953543078657     
 total        electrons   1284.9953543078657     
 total        electrons   1284.9953543078657     
 total        electrons   1284.9953543078657     
 total        electrons   1284.9953543078657     
 total        electrons   1284.9953543078657     
 total        electrons   1284.9953543078657     
 total        electrons   1284.9953543078657     
 total        electrons   1284.9953543078657     
 total        electrons   1284.9953543078657     
 total        electrons   1284.9953543078657     
 total        electrons   1284.9953543078657     
 total        electrons   1284.9953543078657     
 total        electrons   1284.9953543078657     
 total        electrons   1284.9953543078657     
 total        electrons   1284.9953543078657     
 total        electrons   1284.9953543078657     
 total        electrons   1284.9953543078657     
 total        electrons   1284.9953543078657     
 total        electrons   1284.9953543078657     
 total        electrons   1284.9953543078657     
 total        electrons   1284.9953543078657     
 total        electrons   1284.9953543078657     
 total        electrons   1284.9953543078657     
 total        electrons   1284.9953543078657     
 total        electrons   1284.9953543078657     
 total        electrons   1284.9953543078657     
 total        electrons   1284.9953543078657     
 total        electrons   1284.9953543078657     
 total        electrons   1284.9953543078657     
 total        electrons   1284.9953543078657     
 total        electrons   1284.9953543078657     
 total        electrons   1284.9953543078657     
 total        electrons   1284.9953543078657     
 total        electrons   1284.9953543078657     
 total        electrons   1284.9953543078657     
 total        electrons   1284.9953543078657     
 total        electrons   1284.9953543078657     
 total        electrons   1284.9953543078657     
 total        electrons   1284.9953543078657     
 total        electrons   1284.9953543078657     
 total        electrons   1284.9953543078657     
 total        electrons   1284.9953543078657     
 total        electrons   1284.9953543078657     
 entering main loop
       N       E                     dE             d eps       ncg     rms          rms(c)
DAV:   1     0.248723489612E+04    0.24872E+04   -0.10337E+05  8464   0.127E+03
DAV:   2    -0.187573611636E+03   -0.26748E+04   -0.24801E+04  9680   0.314E+02
DAV:   3    -0.624541099653E+03   -0.43697E+03   -0.41502E+03 11880   0.146E+02
DAV:   4    -0.661665683713E+03   -0.37125E+02   -0.35461E+02 13688   0.466E+01
DAV:   5    -0.664055618331E+03   -0.23899E+01   -0.23042E+01 14432   0.112E+01    0.146E+02
RMM:   6    -0.613268825146E+03    0.50787E+02   -0.11152E+03 13316   0.872E+01    0.695E+01
RMM:   7    -0.698414119674E+03   -0.85145E+02   -0.36015E+02 11189   0.501E+01    0.557E+01
RMM:   8    -0.623362240551E+03    0.75052E+02   -0.18414E+02 11880   0.269E+01    0.418E+01
RMM:   9    -0.575293350835E+03    0.48069E+02   -0.39912E+01 12081   0.160E+01    0.266E+01
RMM:  10    -0.564215724373E+03    0.11078E+02   -0.29247E+01 10359   0.158E+01    0.190E+01
RMM:  11    -0.563277127235E+03    0.93860E+00   -0.89595E+00 11660   0.690E+00    0.153E+01
RMM:  12    -0.563335674906E+03   -0.58548E-01   -0.18445E+00 13323   0.185E+00    0.141E+01
RMM:  13    -0.563100602492E+03    0.23507E+00   -0.11879E+00 12272   0.253E+00    0.118E+01
RMM:  14    -0.563191588975E+03   -0.90986E-01   -0.33762E+00 10036   0.592E+00    0.758E+00
RMM:  15    -0.562474543714E+03    0.71705E+00   -0.10720E+00  9868   0.354E+00    0.426E+00
RMM:  16    -0.562232875064E+03    0.24167E+00   -0.10014E+00 12978   0.176E+00    0.273E+00
RMM:  17    -0.562194807186E+03    0.38068E-01   -0.34658E-01 12969   0.114E+00    0.225E+00
RMM:  18    -0.562169657723E+03    0.25149E-01   -0.27916E-01 12845   0.108E+00    0.148E+00
RMM:  19    -0.562147929169E+03    0.21729E-01   -0.10254E-01 12132   0.715E-01    0.718E-01
RMM:  20    -0.562146566104E+03    0.13631E-02   -0.40985E-02 11086   0.523E-01    0.734E-01
RMM:  21    -0.562138759920E+03    0.78062E-02   -0.13144E-02 10961   0.305E-01    0.209E-01
RMM:  22    -0.562138113632E+03    0.64629E-03   -0.12447E-02 13294   0.122E-01    0.178E-01
RMM:  23    -0.562136662308E+03    0.14513E-02   -0.33445E-03 12818   0.102E-01    0.110E-01
RMM:  24    -0.562136321579E+03    0.34073E-03   -0.11317E-03 12778   0.546E-02    0.746E-02
RMM:  25    -0.562136487983E+03   -0.16640E-03   -0.11734E-03 11674   0.812E-02    0.102E-01
RMM:  26    -0.562136687180E+03   -0.19920E-03   -0.59051E-04 11415   0.585E-02    0.456E-02
RMM:  27    -0.562137119535E+03   -0.43236E-03   -0.31851E-04 11579   0.360E-02    0.362E-02
RMM:  28    -0.562137512343E+03   -0.39281E-03   -0.21379E-04 11936   0.276E-02    0.266E-02
RMM:  29    -0.562137810818E+03   -0.29847E-03   -0.27014E-04 11253   0.219E-02    0.188E-02
RMM:  30    -0.562137900001E+03   -0.89183E-04   -0.90585E-05 11566   0.159E-02    0.145E-02
RMM:  31    -0.562137958959E+03   -0.58958E-04   -0.46231E-05 10105   0.798E-03    0.105E-02
RMM:  32    -0.562138106506E+03   -0.14755E-03   -0.28110E-05 10163   0.862E-03    0.543E-03
RMM:  33    -0.562138283268E+03   -0.17676E-03   -0.19702E-05  9397   0.798E-03    0.778E-03
RMM:  34    -0.562138449030E+03   -0.16576E-03   -0.14643E-05  8649   0.617E-03    0.706E-03
RMM:  35    -0.562138538493E+03   -0.89463E-04   -0.83619E-06  8002   0.511E-03    0.542E-03
RMM:  36    -0.562138601331E+03   -0.62838E-04   -0.81912E-06  8129   0.581E-03    0.464E-03
RMM:  37    -0.562138623741E+03   -0.22411E-04   -0.31558E-06  7400   0.435E-03    0.345E-03
RMM:  38    -0.562138646925E+03   -0.23183E-04   -0.35922E-06  7419   0.480E-03    0.446E-03
RMM:  39    -0.562138651510E+03   -0.45856E-05   -0.95925E-07  6353   0.343E-03    0.125E-03
RMM:  40    -0.562138653266E+03   -0.17557E-05   -0.43422E-07  5922   0.184E-03    0.130E-03
RMM:  41    -0.562138653780E+03   -0.51427E-06   -0.21301E-07  5184   0.143E-03
   1 F= -.56213865E+03 E0= -.56213913E+03  d E =0.142598E-02
 augmentation electrons   31.480941368480252     
 soft         electrons   252.64682830960561     
 augmentation electrons   31.480941368480252     
 soft         electrons   252.64682830960561     
 augmentation electrons   31.480941368480252     
 soft         electrons   252.64682830960561     
 augmentation electrons   31.480941368480252     
 soft         electrons   252.64682830960561     
 augmentation electrons   31.480941368480252     
 soft         electrons   252.64682830960561     
 augmentation electrons   31.480941368480252     
 soft         electrons   252.64682830960561     
 augmentation electrons   31.480941368480252     
 soft         electrons   252.64682830960561     
 augmentation electrons   31.480941368480252     
 soft         electrons   252.64682830960561     
 augmentation electrons   31.480941368480252     
 soft         electrons   252.64682830960561     
 augmentation electrons   31.480941368480252     
 soft         electrons   252.64682830960561     
 augmentation electrons   31.480941368480252     
 soft         electrons   252.64682830960561     
 augmentation electrons   31.480941368480252     
 soft         electrons   252.64682830960561     
 augmentation electrons   31.480941368480252     
 soft         electrons   252.64682830960561     
 augmentation electrons   31.480941368480252     
 soft         electrons   252.64682830960561     
 augmentation electrons   31.480941368480252     
 soft         electrons   252.64682830960561     
 augmentation electrons   31.480941368480252     
 soft         electrons   252.64682830960561     
 augmentation electrons   31.480941368480252     
 soft         electrons   252.64682830960561     
 augmentation electrons   31.480941368480252     
 soft         electrons   252.64682830960561     
 augmentation electrons   31.480941368480252     
 soft         electrons   252.64682830960561     
 augmentation electrons   31.480941368480252     
 soft         electrons   252.64682830960561     
 augmentation electrons   31.480941368480252     
 soft         electrons   252.64682830960561     
 augmentation electrons   31.480941368480252     
 soft         electrons   252.64682830960561     
 augmentation electrons   31.480941368480252     
 soft         electrons   252.64682830960561     
 augmentation electrons   31.480941368480252     
 soft         electrons   252.64682830960561     
 augmentation electrons   31.480941368480252     
 soft         electrons   252.64682830960561     
 augmentation electrons   31.480941368480252     
 soft         electrons   252.64682830960561     
 augmentation electrons   31.480941368480252     
 soft         electrons   252.64682830960561     
 augmentation electrons   31.480941368480252     
 soft         electrons   252.64682830960561     
 augmentation electrons   31.480941368480252     
 soft         electrons   252.64682830960561     
 augmentation electrons   31.480941368480252     
 soft         electrons   252.64682830960561     
 augmentation electrons   31.480941368480252     
 soft         electrons   252.64682830960561     
 augmentation electrons   31.480941368480252     
 soft         electrons   252.64682830960561     
 augmentation electrons   31.480941368480252     
 soft         electrons   252.64682830960561     
 augmentation electrons   31.480941368480252     
 soft         electrons   252.64682830960561     
 augmentation electrons   31.480941368480252     
 soft         electrons   252.64682830960561     
 augmentation electrons   31.480941368480252     
 soft         electrons   252.64682830960561     
 augmentation electrons   31.480941368480252     
 soft         electrons   252.64682830960561     
 augmentation electrons   31.480941368480252     
 soft         electrons   252.64682830960561     
 augmentation electrons   31.480941368480252     
 soft         electrons   252.64682830960561     
 augmentation electrons   31.480941368480252     
 soft         electrons   252.64682830960561     
 augmentation electrons   31.480941368480252     
 soft         electrons   252.64682830960561     
 augmentation electrons   31.480941368480252     
 soft         electrons   252.64682830960561     
 augmentation electrons   31.480941368480252     
 soft         electrons   252.64682830960561     
 augmentation electrons   31.480941368480252     
 soft         electrons   252.64682830960561     
 augmentation electrons   31.480941368480252     
 soft         electrons   252.64682830960561     
 augmentation electrons   31.480941368480252     
 soft         electrons   252.64682830960561     
 augmentation electrons   31.480941368480252     
 soft         electrons   252.64682830960561     
 augmentation electrons   31.480941368480252     
 soft         electrons   252.64682830960561     
 augmentation electrons   31.480941368480252     
 augmentation electrons   31.480941368480252     
 soft         electrons   252.64682830960561     
 augmentation electrons   31.480941368480252     
 soft         electrons   252.64682830960561     
 augmentation electrons   31.480941368480252     
 soft         electrons   252.64682830960561     
 augmentation electrons   31.480941368480252     
 soft         electrons   252.64682830960561     
 augmentation electrons   31.480941368480252     
 soft         electrons   252.64682830960561     
 augmentation electrons   31.480941368480252     
 soft         electrons   252.64682830960561     
 augmentation electrons   31.480941368480252     
 soft         electrons   252.64682830960561     
 augmentation electrons   31.480941368480252     
 soft         electrons   252.64682830960561     
 augmentation electrons   31.480941368480252     
 soft         electrons   252.64682830960561     
 augmentation electrons   31.480941368480252     
 soft         electrons   252.64682830960561     
 augmentation electrons   31.480941368480252     
 soft         electrons   252.64682830960561     
 augmentation electrons   31.480941368480252     
 soft         electrons   252.64682830960561     
 augmentation electrons   31.480941368480252     
 soft         electrons   252.64682830960561     
 augmentation electrons   31.480941368480252     
 soft         electrons   252.64682830960561     
 augmentation electrons   31.480941368480252     
 soft         electrons   252.64682830960561     
 augmentation electrons   31.480941368480252     
 soft         electrons   252.64682830960561     
 augmentation electrons   31.480941368480252     
 soft         electrons   252.64682830960561     
 augmentation electrons   31.480941368480252     
 soft         electrons   252.64682830960561     
 augmentation electrons   31.480941368480252     
 soft         electrons   252.64682830960561     
 augmentation electrons   31.480941368480252     
 soft         electrons   252.64682830960561     
 augmentation electrons   31.480941368480252     
 soft         electrons   252.64682830960561     
 augmentation electrons   31.480941368480252     
 soft         electrons   252.64682830960561     
 augmentation electrons   31.480941368480252     
 soft         electrons   252.64682830960561     
 soft         electrons   252.64682830960561     
 total        electrons   284.12776967808588     
 total        electrons   284.12776967808588     
 total        electrons   284.12776967808588     
 total        electrons   284.12776967808588     
 total        electrons   284.12776967808588     
 total        electrons   284.12776967808588     
 total        electrons   284.12776967808588     
 total        electrons   284.12776967808588     
 total        electrons   284.12776967808588     
 total        electrons   284.12776967808588     
 total        electrons   284.12776967808588     
 total        electrons   284.12776967808588     
 total        electrons   284.12776967808588     
 total        electrons   284.12776967808588     
 total        electrons   284.12776967808588     
 total        electrons   284.12776967808588     
 total        electrons   284.12776967808588     
 total        electrons   284.12776967808588     
 total        electrons   284.12776967808588     
 total        electrons   284.12776967808588     
 total        electrons   284.12776967808588     
 total        electrons   284.12776967808588     
 total        electrons   284.12776967808588     
 total        electrons   284.12776967808588     
 total        electrons   284.12776967808588     
 total        electrons   284.12776967808588     
 total        electrons   284.12776967808588     
 total        electrons   284.12776967808588     
 total        electrons   284.12776967808588     
 total        electrons   284.12776967808588     
 total        electrons   284.12776967808588     
 total        electrons   284.12776967808588     
 total        electrons   284.12776967808588     
 total        electrons   284.12776967808588     
 total        electrons   284.12776967808588     
 total        electrons   284.12776967808588     
 total        electrons   284.12776967808588     
 total        electrons   284.12776967808588     
 total        electrons   284.12776967808588     
 total        electrons   284.12776967808588     
 total        electrons   284.12776967808588     
 total        electrons   284.12776967808588     
 total        electrons   284.12776967808588     
 total        electrons   284.12776967808588     
 total        electrons   284.12776967808588     
 total        electrons   284.12776967808588     
 total        electrons   284.12776967808588     
 total        electrons   284.12776967808588     
 total        electrons   284.12776967808588     
 total        electrons   284.12776967808588     
 total        electrons   284.12776967808588     
 total        electrons   284.12776967808588     
 total        electrons   284.12776967808588     
 total        electrons   284.12776967808588     
 total        electrons   284.12776967808588     
 total        electrons   284.12776967808588     
 total        electrons   284.12776967808588     
 total        electrons   284.12776967808588     
 total        electrons   284.12776967808588     
 total        electrons   284.12776967808588     
 total        electrons   284.12776967808588     
 total        electrons   284.12776967808588     
 total        electrons   284.12776967808588     
 total        electrons   284.12776967808588     
 total        electrons   284.12776967808588     
 total        electrons   284.12776967808588     
 total        electrons   284.12776967808588     
 total        electrons   284.12776967808588     
 total        electrons   284.12776967808588     
 total        electrons   284.12776967808588     
 total        electrons   284.12776967808588     
 total        electrons   284.12776967808588     
Note: The following floating-point exceptions are signalling: IEEE_OVERFLOW_FLAG
Note: The following floating-point exceptions are signalling: IEEE_OVERFLOW_FLAG
Note: The following floating-point exceptions are signalling: IEEE_OVERFLOW_FLAG
Note: The following floating-point exceptions are signalling: IEEE_OVERFLOW_FLAG
Note: The following floating-point exceptions are signalling: IEEE_OVERFLOW_FLAG
Note: The following floating-point exceptions are signalling: IEEE_OVERFLOW_FLAG
Note: The following floating-point exceptions are signalling: IEEE_OVERFLOW_FLAG
Note: The following floating-point exceptions are signalling: IEEE_OVERFLOW_FLAG
Note: The following floating-point exceptions are signalling: IEEE_OVERFLOW_FLAG
Note: The following floating-point exceptions are signalling: IEEE_OVERFLOW_FLAG
Note: The following floating-point exceptions are signalling: IEEE_OVERFLOW_FLAG
Note: The following floating-point exceptions are signalling: IEEE_OVERFLOW_FLAG
Note: The following floating-point exceptions are signalling: IEEE_OVERFLOW_FLAG
Note: The following floating-point exceptions are signalling: IEEE_OVERFLOW_FLAG
Note: The following floating-point exceptions are signalling: IEEE_OVERFLOW_FLAG
Note: The following floating-point exceptions are signalling: IEEE_OVERFLOW_FLAG
Note: The following floating-point exceptions are signalling: IEEE_OVERFLOW_FLAG
Note: The following floating-point exceptions are signalling: IEEE_OVERFLOW_FLAG
Note: The following floating-point exceptions are signalling: IEEE_OVERFLOW_FLAG
Note: The following floating-point exceptions are signalling: IEEE_OVERFLOW_FLAG
Note: The following floating-point exceptions are signalling: IEEE_OVERFLOW_FLAG
Note: The following floating-point exceptions are signalling: IEEE_OVERFLOW_FLAG
Note: The following floating-point exceptions are signalling: IEEE_OVERFLOW_FLAG
Note: The following floating-point exceptions are signalling: IEEE_OVERFLOW_FLAG
Note: The following floating-point exceptions are signalling: IEEE_OVERFLOW_FLAG
Note: The following floating-point exceptions are signalling: IEEE_OVERFLOW_FLAG
Note: The following floating-point exceptions are signalling: IEEE_OVERFLOW_FLAG
Note: The following floating-point exceptions are signalling: IEEE_OVERFLOW_FLAG
Note: The following floating-point exceptions are signalling: IEEE_OVERFLOW_FLAG
Note: The following floating-point exceptions are signalling: IEEE_OVERFLOW_FLAG
Note: The following floating-point exceptions are signalling: IEEE_OVERFLOW_FLAG
Note: The following floating-point exceptions are signalling: IEEE_OVERFLOW_FLAG
Note: The following floating-point exceptions are signalling: IEEE_OVERFLOW_FLAG
Note: The following floating-point exceptions are signalling: IEEE_OVERFLOW_FLAG
Note: The following floating-point exceptions are signalling: IEEE_OVERFLOW_FLAG
Note: The following floating-point exceptions are signalling: IEEE_OVERFLOW_FLAG
Note: The following floating-point exceptions are signalling: IEEE_OVERFLOW_FLAG
Note: The following floating-point exceptions are signalling: IEEE_OVERFLOW_FLAG
Note: The following floating-point exceptions are signalling: IEEE_OVERFLOW_FLAG
Note: The following floating-point exceptions are signalling: IEEE_OVERFLOW_FLAG
Note: The following floating-point exceptions are signalling: IEEE_OVERFLOW_FLAG
Note: The following floating-point exceptions are signalling: IEEE_OVERFLOW_FLAG
Note: The following floating-point exceptions are signalling: IEEE_OVERFLOW_FLAG
Note: The following floating-point exceptions are signalling: IEEE_OVERFLOW_FLAG
Note: The following floating-point exceptions are signalling: IEEE_OVERFLOW_FLAG
Note: The following floating-point exceptions are signalling: IEEE_OVERFLOW_FLAG
Note: The following floating-point exceptions are signalling: IEEE_OVERFLOW_FLAG
Note: The following floating-point exceptions are signalling: IEEE_OVERFLOW_FLAG
Note: The following floating-point exceptions are signalling: IEEE_OVERFLOW_FLAG
Note: The following floating-point exceptions are signalling: IEEE_OVERFLOW_FLAG
Note: The following floating-point exceptions are signalling: IEEE_OVERFLOW_FLAG
Note: The following floating-point exceptions are signalling: IEEE_OVERFLOW_FLAG
Note: The following floating-point exceptions are signalling: IEEE_OVERFLOW_FLAG
Note: The following floating-point exceptions are signalling: IEEE_OVERFLOW_FLAG
Note: The following floating-point exceptions are signalling: IEEE_OVERFLOW_FLAG
Note: The following floating-point exceptions are signalling: IEEE_OVERFLOW_FLAG
Note: The following floating-point exceptions are signalling: IEEE_OVERFLOW_FLAG
Note: The following floating-point exceptions are signalling: IEEE_OVERFLOW_FLAG
Note: The following floating-point exceptions are signalling: IEEE_OVERFLOW_FLAG
Note: The following floating-point exceptions are signalling: IEEE_OVERFLOW_FLAG
Note: The following floating-point exceptions are signalling: IEEE_OVERFLOW_FLAG
Note: The following floating-point exceptions are signalling: IEEE_OVERFLOW_FLAG
Note: The following floating-point exceptions are signalling: IEEE_OVERFLOW_FLAG
Note: The following floating-point exceptions are signalling: IEEE_OVERFLOW_FLAG
Note: The following floating-point exceptions are signalling: IEEE_OVERFLOW_FLAG
Note: The following floating-point exceptions are signalling: IEEE_OVERFLOW_FLAG
Note: The following floating-point exceptions are signalling: IEEE_OVERFLOW_FLAG
Note: The following floating-point exceptions are signalling: IEEE_OVERFLOW_FLAG
Note: The following floating-point exceptions are signalling: IEEE_OVERFLOW_FLAG
Note: The following floating-point exceptions are signalling: IEEE_OVERFLOW_FLAG
Note: The following floating-point exceptions are signalling: IEEE_OVERFLOW_FLAG
Note: The following floating-point exceptions are signalling: IEEE_OVERFLOW_FLAG
