    5    5    1    1
  0.4003588E+02  0.6088057E-09  0.6088057E-09  0.6240821E-09  0.5000000E-15
   1.0000000000000000E-004
  CAR 
 Name                                    
     30    125     20

  0.3742002E-15  0.3742002E-15  0.3742002E-15  0.1371742E-02
    1       -3.982775   1.000000
    2       -2.501965   1.000000
    3       -2.329599   1.000000
    4       -1.957519   1.000000
    5       -1.823898   1.000000
    6       -1.725516   1.000000
    7       -1.577905   1.000000
    8       -1.520155   1.000000
    9       -1.510378   1.000000
   10       -1.146517   1.000000
   11       -1.093070   1.000000
   12       -0.650991   1.000000
   13        0.146572  -0.003903
   14        0.340912  -0.000000
   15        0.559216  -0.000000
   16        0.587965  -0.000000
   17        0.693387  -0.000000
   18        0.886972  -0.000000
   19        1.119171  -0.000000
   20        1.506996  -0.000000

  0.1111111E+00  0.3648891E-15  0.3742002E-15  0.5486968E-02
    1       -3.903579   1.000000
    2       -2.439739   1.000000
    3       -2.284786   1.000000
    4       -1.900846   1.000000
    5       -1.820386   1.000000
    6       -1.661220   1.000000
    7       -1.536505   1.000000
    8       -1.521088   1.000000
    9       -1.484899   1.000000
   10       -1.106019   1.000000
   11       -1.094162   1.000000
   12       -0.617057   1.000000
   13        0.120692  -0.009478
   14        0.271646  -0.000006
   15        0.347068  -0.000000
   16        0.521012  -0.000000
   17        0.605302  -0.000000
   18        0.664464  -0.000000
   19        0.854796  -0.000000
   20        1.328240  -0.000000

  0.2222222E+00  0.3721884E-15  0.3742002E-15  0.5486968E-02
    1       -3.675701   1.000000
    2       -2.285625   1.000000
    3       -2.153038   1.000000
    4       -1.862010   1.000000
    5       -1.718562   1.000000
    6       -1.553999   1.000000
    7       -1.434401   1.000000
    8       -1.420208   1.000000
    9       -1.364641   1.000000
   10       -1.089437   1.000000
   11       -0.983856   1.000000
   12       -0.519001   1.000000
   13       -0.275824   1.007514
   14        0.180226  -0.000960
   15        0.307095  -0.000000
   16        0.358457  -0.000000
   17        0.393435  -0.000000
   18        0.652138  -0.000000
   19        0.659493  -0.000000
   20        0.831859  -0.000000

  0.3333333E+00  0.4138540E-15  0.3742002E-15  0.5486968E-02
    1       -3.334722   1.000000
    2       -2.185084   1.000000
    3       -1.945132   1.000000
    4       -1.918741   1.000000
    5       -1.541939   1.000000
    6       -1.352819   1.000000
    7       -1.345836   1.000000
    8       -1.141418   1.000000
    9       -1.074671   1.000000
   10       -1.061944   1.000000
   11       -0.770547   1.000000
   12       -0.723408   1.000000
   13       -0.405213   1.000015
   14       -0.147686   0.972338
   15        0.061538  -0.033294
   16        0.136052  -0.005716
   17        0.196061  -0.000453
   18        0.353978  -0.000000
   19        0.472691  -0.000000
   20        0.566643  -0.000000

  0.4444444E+00  0.3861792E-15  0.3742002E-15  0.5486968E-02
    1       -2.982059   1.000000
    2       -2.333460   1.000000
    3       -1.888754   1.000000
    4       -1.707298   1.000000
    5       -1.325355   1.000000
    6       -1.313054   1.000000
    7       -1.135284   1.000000
    8       -1.021030   1.000000
    9       -0.969762   1.000000
   10       -0.842518   1.000000
   11       -0.757014   1.000000
   12       -0.696640   1.000000
   13       -0.408045   1.000012
   14       -0.327591   1.000981
   15       -0.166439   1.015521
   16       -0.060160   0.384764
   17       -0.045863   0.272610
   18        0.087812  -0.022267
   19        0.269551  -0.000007
   20        0.424559  -0.000000

  0.1111111E+00  0.1111111E+00  0.3742002E-15  0.2743484E-02
    1       -3.735691   1.000000
    2       -2.315696   1.000000
    3       -2.173986   1.000000
    4       -1.878764   1.000000
    5       -1.728632   1.000000
    6       -1.556763   1.000000
    7       -1.514080   1.000000
    8       -1.405983   1.000000
    9       -1.393535   1.000000
   10       -1.136589   1.000000
   11       -1.005432   1.000000
   12       -0.538728   1.000000
   13       -0.211646   1.032571
   14        0.220288  -0.000129
   15        0.276168  -0.000004
   16        0.449890  -0.000000
   17        0.493809  -0.000000
   18        0.664997  -0.000000
   19        0.677101  -0.000000
   20        0.964094  -0.000000

  0.2222222E+00  0.1111111E+00  0.3742002E-15  0.5486968E-02
    1       -3.435796   1.000000
    2       -2.145369   1.000000
    3       -1.986526   1.000000
    4       -1.985298   1.000000
    5       -1.545595   1.000000
    6       -1.421726   1.000000
    7       -1.308388   1.000000
    8       -1.294049   1.000000
    9       -1.162484   1.000000
   10       -1.117166   1.000000
   11       -0.804534   1.000000
   12       -0.673606   1.000000
   13       -0.388784   1.000040
   14       -0.049151   0.297344
   15        0.167125  -0.001711
   16        0.208504  -0.000241
   17        0.300405  -0.000001
   18        0.343803  -0.000000
   19        0.574482  -0.000000
   20        0.861072  -0.000000

  0.3333333E+00  0.1111111E+00  0.3742002E-15  0.5486968E-02
    1       -3.060819   1.000000
    2       -2.257586   1.000000
    3       -1.916411   1.000000
    4       -1.744335   1.000000
    5       -1.425411   1.000000
    6       -1.276773   1.000000
    7       -1.094794   1.000000
    8       -1.055740   1.000000
    9       -1.045501   1.000000
   10       -0.994912   1.000000
   11       -0.858255   1.000000
   12       -0.647523   1.000000
   13       -0.448103   1.000001
   14       -0.266064   1.010219
   15       -0.112857   0.803450
   16        0.039469  -0.034023
   17        0.097126  -0.018094
   18        0.152897  -0.003062
   19        0.357602  -0.000000
   20        0.435515  -0.000000

  0.4444444E+00  0.1111111E+00  0.3742002E-15  0.5486968E-02
    1       -2.851138   1.000000
    2       -2.402093   1.000000
    3       -1.842834   1.000000
    4       -1.637905   1.000000
    5       -1.355682   1.000000
    6       -1.232076   1.000000
    7       -1.209029   1.000000
    8       -1.111018   1.000000
    9       -0.906406   1.000000
   10       -0.813307   1.000000
   11       -0.717610   1.000000
   12       -0.664416   1.000000
   13       -0.486879   1.000000
   14       -0.391639   1.000034
   15       -0.159898   1.003799
   16       -0.048992   0.296138
   17       -0.041816   0.243210
   18        0.044415  -0.035179
   19        0.280017  -0.000003
   20        0.378823  -0.000000

 -0.4444444E+00  0.1111111E+00  0.3742002E-15  0.5486968E-02
    1       -3.146202   1.000000
    2       -2.211800   1.000000
    3       -1.872854   1.000000
    4       -1.849900   1.000000
    5       -1.507920   1.000000
    6       -1.389170   1.000000
    7       -1.234640   1.000000
    8       -1.017318   1.000000
    9       -1.005850   1.000000
   10       -0.878601   1.000000
   11       -0.755371   1.000000
   12       -0.674415   1.000000
   13       -0.603136   1.000000
   14       -0.242963   1.018966
   15       -0.077622   0.531303
   16       -0.015566   0.087508
   17        0.101247  -0.016356
   18        0.310911  -0.000000
   19        0.369652  -0.000000
   20        0.384615  -0.000000

 -0.3333333E+00  0.1111111E+00  0.3742002E-15  0.5486968E-02
    1       -3.508913   1.000000
    2       -2.196430   1.000000
    3       -2.097015   1.000000
    4       -1.832570   1.000000
    5       -1.703770   1.000000
    6       -1.507876   1.000000
    7       -1.438707   1.000000
    8       -1.308706   1.000000
    9       -1.192572   1.000000
   10       -0.980983   1.000000
   11       -0.913494   1.000000
   12       -0.476497   1.000000
   13       -0.427885   1.000003
   14        0.053916  -0.035046
   15        0.118756  -0.010056
   16        0.216457  -0.000158
   17        0.337023  -0.000000
   18        0.536147  -0.000000
   19        0.570493  -0.000000
   20        0.667783  -0.000000

 -0.2222222E+00  0.1111111E+00  0.3742002E-15  0.5486968E-02
    1       -3.782211   1.000000
    2       -2.350298   1.000000
    3       -2.246114   1.000000
    4       -1.892765   1.000000
    5       -1.758526   1.000000
    6       -1.626456   1.000000
    7       -1.486611   1.000000
    8       -1.481886   1.000000
    9       -1.424049   1.000000
   10       -1.062810   1.000000
   11       -1.016844   1.000000
   12       -0.569717   1.000000
   13       -0.083941   0.584332
   14        0.253073  -0.000019
   15        0.365423  -0.000000
   16        0.407111  -0.000000
   17        0.478982  -0.000000
   18        0.600727  -0.000000
   19        0.747821  -0.000000
   20        0.867003  -0.000000

 -0.1111111E+00  0.1111111E+00  0.3742002E-15  0.2743484E-02
    1       -3.919419   1.000000
    2       -2.453664   1.000000
    3       -2.309558   1.000000
    4       -1.950536   1.000000
    5       -1.770081   1.000000
    6       -1.714203   1.000000
    7       -1.540702   1.000000
    8       -1.509049   1.000000
    9       -1.500039   1.000000
   10       -1.125558   1.000000
   11       -1.054983   1.000000
   12       -0.625019   1.000000
   13        0.070132  -0.030202
   14        0.313823  -0.000000
   15        0.503514  -0.000000
   16        0.508429  -0.000000
   17        0.617978  -0.000000
   18        0.679733  -0.000000
   19        0.918430  -0.000000
   20        0.967995  -0.000000

  0.2222222E+00  0.2222222E+00  0.3742002E-15  0.2743484E-02
    1       -3.085838   1.000000
    2       -2.209765   1.000000
    3       -1.937307   1.000000
    4       -1.755307   1.000000
    5       -1.478390   1.000000
    6       -1.256850   1.000000
    7       -1.110673   1.000000
    8       -1.096558   1.000000
    9       -1.071224   1.000000
   10       -1.051071   1.000000
   11       -0.870700   1.000000
   12       -0.628332   1.000000
   13       -0.454007   1.000001
   14       -0.231300   1.024279
   15       -0.141282   0.950326
   16        0.107513  -0.013887
   17        0.144174  -0.004268
   18        0.231326  -0.000069
   19        0.319089  -0.000000
   20        0.544953  -0.000000

  0.3333333E+00  0.2222222E+00  0.3742002E-15  0.5486968E-02
    1       -2.711362   1.000000
    2       -2.469593   1.000000
    3       -1.764134   1.000000
    4       -1.538666   1.000000
    5       -1.428737   1.000000
    6       -1.353461   1.000000
    7       -1.269990   1.000000
    8       -1.139300   1.000000
    9       -0.876818   1.000000
   10       -0.837082   1.000000
   11       -0.706494   1.000000
   12       -0.668210   1.000000
   13       -0.579407   1.000000
   14       -0.438348   1.000002
   15       -0.105165   0.750649
   16       -0.047973   0.288396
   17        0.008930   0.003015
   18        0.295923  -0.000001
   19        0.333586  -0.000000
   20        0.480080  -0.000000

  0.4444444E+00  0.2222222E+00  0.3742002E-15  0.5486968E-02
    1       -2.920611   1.000000
    2       -2.248914   1.000000
    3       -1.794188   1.000000
    4       -1.736515   1.000000
    5       -1.484657   1.000000
    6       -1.383442   1.000000
    7       -1.126334   1.000000
    8       -1.101042   1.000000
    9       -1.017659   1.000000
   10       -0.898564   1.000000
   11       -0.698141   1.000000
   12       -0.681433   1.000000
   13       -0.563530   1.000000
   14       -0.358755   1.000213
   15       -0.235361   1.022401
   16       -0.045483   0.269792
   17        0.095123  -0.018966
   18        0.281928  -0.000003
   19        0.317626  -0.000000
   20        0.357725  -0.000000

 -0.4444444E+00  0.2222222E+00  0.3742002E-15  0.5486968E-02
    1       -3.284966   1.000000
    2       -2.060492   1.000000
    3       -2.028070   1.000000
    4       -1.807692   1.000000
    5       -1.681217   1.000000
    6       -1.447284   1.000000
    7       -1.432142   1.000000
    8       -1.161738   1.000000
    9       -0.911183   1.000000
   10       -0.903895   1.000000
   11       -0.764715   1.000000
   12       -0.555480   1.000000
   13       -0.539292   1.000000
   14       -0.295709   1.003716
   15       -0.026931   0.146884
   16        0.028762  -0.027691
   17        0.278963  -0.000004
   18        0.320329  -0.000000
   19        0.365474  -0.000000
   20        0.592078  -0.000000

 -0.3333333E+00  0.2222222E+00  0.3742002E-15  0.5486968E-02
    1       -3.576008   1.000000
    2       -2.184591   1.000000
    3       -2.180393   1.000000
    4       -1.877444   1.000000
    5       -1.716992   1.000000
    6       -1.586958   1.000000
    7       -1.475898   1.000000
    8       -1.332478   1.000000
    9       -1.181764   1.000000
   10       -0.974244   1.000000
   11       -0.882391   1.000000
   12       -0.494581   1.000000
   13       -0.316721   1.001588
   14        0.070616  -0.030003
   15        0.143822  -0.004324
   16        0.244559  -0.000032
   17        0.385633  -0.000000
   18        0.447863  -0.000000
   19        0.583218  -0.000000
   20        0.598156  -0.000000

 -0.2222222E+00  0.2222222E+00  0.3742002E-15  0.2743484E-02
    1       -3.747807   1.000000
    2       -2.315083   1.000000
    3       -2.257597   1.000000
    4       -1.935218   1.000000
    5       -1.681381   1.000000
    6       -1.675020   1.000000
    7       -1.499791   1.000000
    8       -1.425406   1.000000
    9       -1.376441   1.000000
   10       -1.062862   1.000000
   11       -0.945175   1.000000
   12       -0.553992   1.000000
   13       -0.134958   0.924617
   14        0.223320  -0.000109
   15        0.366245  -0.000000
   16        0.381057  -0.000000
   17        0.420983  -0.000000
   18        0.613653  -0.000000
   19        0.664351  -0.000000
   20        1.011587  -0.000000

  0.3333333E+00  0.3333333E+00  0.3742002E-15  0.2743484E-02
    1       -2.799289   1.000000
    2       -2.280920   1.000000
    3       -1.758143   1.000000
    4       -1.555828   1.000000
    5       -1.547590   1.000000
    6       -1.344538   1.000000
    7       -1.270685   1.000000
    8       -1.223954   1.000000
    9       -1.042593   1.000000
   10       -0.809205   1.000000
   11       -0.635722   1.000000
   12       -0.626419   1.000000
   13       -0.586080   1.000000
   14       -0.412661   1.000009
   15       -0.328305   1.000950
   16       -0.048934   0.295693
   17        0.131985  -0.006575
   18        0.255307  -0.000017
   19        0.346352  -0.000000
   20        0.503226  -0.000000

  0.4444444E+00  0.3333333E+00  0.3742002E-15  0.5486968E-02
    1       -3.111157   1.000000
    2       -1.980676   1.000000
    3       -1.949320   1.000000
    4       -1.771423   1.000000
    5       -1.590321   1.000000
    6       -1.405242   1.000000
    7       -1.400317   1.000000
    8       -1.136256   1.000000
    9       -0.955457   1.000000
   10       -0.875125   1.000000
   11       -0.668611   1.000000
   12       -0.517858   1.000000
   13       -0.485545   1.000000
   14       -0.351591   1.000308
   15       -0.339357   1.000565
   16       -0.078405   0.537915
   17        0.048849  -0.035457
   18        0.343699  -0.000000
   19        0.401501  -0.000000
   20        0.532929  -0.000000

 -0.4444444E+00  0.3333333E+00  0.3742002E-15  0.5486968E-02
    1       -3.369773   1.000000
    2       -2.129056   1.000000
    3       -1.966415   1.000000
    4       -1.857829   1.000000
    5       -1.706189   1.000000
    6       -1.511641   1.000000
    7       -1.445131   1.000000
    8       -1.160901   1.000000
    9       -0.876526   1.000000
   10       -0.778991   1.000000
   11       -0.757557   1.000000
   12       -0.525104   1.000000
   13       -0.465959   1.000000
   14       -0.322146   1.001253
   15       -0.082950   0.576072
   16       -0.019785   0.108042
   17        0.122661  -0.008914
   18        0.325560  -0.000000
   19        0.394753  -0.000000
   20        0.563286  -0.000000

 -0.3333333E+00  0.3333333E+00  0.3742002E-15  0.2743484E-02
    1       -3.529840   1.000000
    2       -2.197030   1.000000
    3       -2.111946   1.000000
    4       -1.920080   1.000000
    5       -1.640633   1.000000
    6       -1.614329   1.000000
    7       -1.473397   1.000000
    8       -1.245189   1.000000
    9       -1.058605   1.000000
   10       -0.960834   1.000000
   11       -0.780073   1.000000
   12       -0.466677   1.000000
   13       -0.366192   1.000143
   14       -0.090227   0.635989
   15        0.064826  -0.032221
   16        0.207127  -0.000259
   17        0.217494  -0.000150
   18        0.380375  -0.000000
   19        0.509900  -0.000000
   20        0.654410  -0.000000

  0.4444444E+00  0.4444444E+00  0.3742002E-15  0.2743484E-02
    1       -3.280894   1.000000
    2       -2.107127   1.000000
    3       -1.887704   1.000000
    4       -1.808215   1.000000
    5       -1.709832   1.000000
    6       -1.423258   1.000000
    7       -1.313679   1.000000
    8       -1.254657   1.000000
    9       -0.813894   1.000000
   10       -0.746417   1.000000
   11       -0.548733   1.000000
   12       -0.545165   1.000000
   13       -0.447103   1.000001
   14       -0.370482   1.000113
   15       -0.291057   1.004421
   16       -0.170521   1.021231
   17       -0.132168   0.911998
   18        0.303556  -0.000001
   19        0.397085  -0.000000
   20        0.415181  -0.000000

 -0.4444444E+00  0.4444444E+00  0.3742002E-15  0.2743484E-02
    1       -3.372437   1.000000
    2       -2.157400   1.000000
    3       -1.947841   1.000000
    4       -1.904935   1.000000
    5       -1.634898   1.000000
    6       -1.440266   1.000000
    7       -1.440026   1.000000
    8       -1.154209   1.000000
    9       -0.828587   1.000000
   10       -0.611567   1.000000
   11       -0.604936   1.000000
   12       -0.540863   1.000000
   13       -0.522209   1.000000
   14       -0.332104   1.000797
   15       -0.242486   1.019177
   16       -0.114904   0.816648
   17       -0.107475   0.767018
   18        0.276440  -0.000004
   19        0.361899  -0.000000
   20        0.444835  -0.000000

  0.3742002E-15  0.3742002E-15  0.1111111E+00  0.2743484E-02
    1       -3.937024   1.000000
    2       -2.500210   1.000000
    3       -2.289765   1.000000
    4       -1.939633   1.000000
    5       -1.799904   1.000000
    6       -1.724581   1.000000
    7       -1.561943   1.000000
    8       -1.475365   1.000000
    9       -1.456914   1.000000
   10       -1.142316   1.000000
   11       -1.064135   1.000000
   12       -0.664299   1.000000
   13       -0.023652   0.128436
   14        0.322338  -0.000000
   15        0.461957  -0.000000
   16        0.490397  -0.000000
   17        0.556417  -0.000000
   18        0.704077  -0.000000
   19        0.844653  -0.000000
   20        1.730622  -0.000000

  0.1111111E+00  0.3648891E-15  0.1111111E+00  0.1097394E-01
    1       -3.857601   1.000000
    2       -2.435767   1.000000
    3       -2.246151   1.000000
    4       -1.883665   1.000000
    5       -1.790548   1.000000
    6       -1.658490   1.000000
    7       -1.516633   1.000000
    8       -1.474838   1.000000
    9       -1.448737   1.000000
   10       -1.107231   1.000000
   11       -1.060208   1.000000
   12       -0.629881   1.000000
   13       -0.036924   0.209402
   14        0.215033  -0.000171
   15        0.292274  -0.000001
   16        0.476767  -0.000000
   17        0.522657  -0.000000
   18        0.643490  -0.000000
   19        0.872250  -0.000000
   20        1.044818  -0.000000

  0.2222222E+00  0.3721884E-15  0.1111111E+00  0.1097394E-01
    1       -3.629270   1.000000
    2       -2.274453   1.000000
    3       -2.118301   1.000000
    4       -1.815120   1.000000
    5       -1.698751   1.000000
    6       -1.531733   1.000000
    7       -1.428546   1.000000
    8       -1.384799   1.000000
    9       -1.358913   1.000000
   10       -1.067656   1.000000
   11       -0.972887   1.000000
   12       -0.533331   1.000000
   13       -0.298580   1.003330
   14        0.026658  -0.025717
   15        0.210226  -0.000220
   16        0.409049  -0.000000
   17        0.440553  -0.000000
   18        0.504085  -0.000000
   19        0.648766  -0.000000
   20        0.784615  -0.000000

  0.3333333E+00  0.4138540E-15  0.1111111E+00  0.1097394E-01
    1       -3.288663   1.000000
    2       -2.154277   1.000000
    3       -1.922095   1.000000
    4       -1.857072   1.000000
    5       -1.526135   1.000000
    6       -1.349885   1.000000
    7       -1.321747   1.000000
    8       -1.130974   1.000000
    9       -1.101405   1.000000
   10       -1.019392   1.000000
   11       -0.789201   1.000000
   12       -0.671905   1.000000
   13       -0.419824   1.000006
   14       -0.203470   1.034758
   15        0.023561  -0.022312
   16        0.132104  -0.006549
   17        0.231822  -0.000068
   18        0.355866  -0.000000
   19        0.463422  -0.000000
   20        0.539899  -0.000000

  0.4444444E+00  0.3861792E-15  0.1111111E+00  0.1097394E-01
    1       -2.940776   1.000000
    2       -2.273191   1.000000
    3       -1.854181   1.000000
    4       -1.685731   1.000000
    5       -1.325710   1.000000
    6       -1.289267   1.000000
    7       -1.140916   1.000000
    8       -0.992981   1.000000
    9       -0.946989   1.000000
   10       -0.817189   1.000000
   11       -0.744908   1.000000
   12       -0.688983   1.000000
   13       -0.406165   1.000014
   14       -0.324788   1.001114
   15       -0.181960   1.031585
   16       -0.095597   0.678756
   17       -0.000218   0.027865
   18        0.082345  -0.024794
   19        0.264228  -0.000009
   20        0.366644  -0.000000

  0.1111111E+00  0.1111111E+00  0.1111111E+00  0.5486968E-02
    1       -3.690049   1.000000
    2       -2.304512   1.000000
    3       -2.139415   1.000000
    4       -1.833863   1.000000
    5       -1.715541   1.000000
    6       -1.520736   1.000000
    7       -1.504611   1.000000
    8       -1.393356   1.000000
    9       -1.370126   1.000000
   10       -1.114283   1.000000
   11       -0.996000   1.000000
   12       -0.554821   1.000000
   13       -0.215377   1.031227
   14        0.016904  -0.012798
   15        0.238938  -0.000045
   16        0.457208  -0.000000
   17        0.460470  -0.000000
   18        0.587436  -0.000000
   19        1.001062  -0.000000
   20        1.056574  -0.000000

  0.2222222E+00  0.1111111E+00  0.1111111E+00  0.1097394E-01
    1       -3.390495   1.000000
    2       -2.123355   1.000000
    3       -1.967320   1.000000
    4       -1.917328   1.000000
    5       -1.529027   1.000000
    6       -1.414581   1.000000
    7       -1.294151   1.000000
    8       -1.260776   1.000000
    9       -1.152042   1.000000
   10       -1.114033   1.000000
   11       -0.820956   1.000000
   12       -0.633078   1.000000
   13       -0.392332   1.000032
   14       -0.150001   0.979330
   15        0.136097  -0.005708
   16        0.172525  -0.001355
   17        0.297143  -0.000001
   18        0.405091  -0.000000
   19        0.563337  -0.000000
   20        0.629356  -0.000000

  0.3333333E+00  0.1111111E+00  0.1111111E+00  0.1097394E-01
    1       -3.017553   1.000000
    2       -2.198049   1.000000
    3       -1.885258   1.000000
    4       -1.721767   1.000000
    5       -1.419266   1.000000
    6       -1.255911   1.000000
    7       -1.113418   1.000000
    8       -1.040301   1.000000
    9       -1.008282   1.000000
   10       -0.975737   1.000000
   11       -0.827185   1.000000
   12       -0.648580   1.000000
   13       -0.447220   1.000001
   14       -0.267454   1.009797
   15       -0.123572   0.868182
   16       -0.013004   0.075918
   17        0.122037  -0.009090
   18        0.167550  -0.001681
   19        0.338534  -0.000000
   20        0.427578  -0.000000

  0.4444444E+00  0.1111111E+00  0.1111111E+00  0.1097394E-01
    1       -2.809944   1.000000
    2       -2.339101   1.000000
    3       -1.811596   1.000000
    4       -1.619416   1.000000
    5       -1.343952   1.000000
    6       -1.224944   1.000000
    7       -1.194145   1.000000
    8       -1.087822   1.000000
    9       -0.891202   1.000000
   10       -0.786508   1.000000
   11       -0.707679   1.000000
   12       -0.654991   1.000000
   13       -0.487060   1.000000
   14       -0.382199   1.000058
   15       -0.181798   1.031489
   16       -0.059214   0.377029
   17       -0.023900   0.129791
   18        0.044002  -0.035118
   19        0.273718  -0.000005
   20        0.334356  -0.000000

 -0.4444444E+00  0.1111111E+00  0.1111111E+00  0.1097394E-01
    1       -3.097376   1.000000
    2       -2.172256   1.000000
    3       -1.850045   1.000000
    4       -1.795855   1.000000
    5       -1.488996   1.000000
    6       -1.365025   1.000000
    7       -1.256154   1.000000
    8       -1.047481   1.000000
    9       -0.962007   1.000000
   10       -0.861663   1.000000
   11       -0.738410   1.000000
   12       -0.645064   1.000000
   13       -0.610420   1.000000
   14       -0.248202   1.016722
   15       -0.115388   0.819711
   16        0.026113  -0.025161
   17        0.069444  -0.030480
   18        0.293745  -0.000001
   19        0.311599  -0.000000
   20        0.420123  -0.000000

 -0.3333333E+00  0.1111111E+00  0.1111111E+00  0.1097394E-01
    1       -3.459893   1.000000
    2       -2.185170   1.000000
    3       -2.061748   1.000000
    4       -1.780617   1.000000
    5       -1.677153   1.000000
    6       -1.503942   1.000000
    7       -1.406514   1.000000
    8       -1.306949   1.000000
    9       -1.182539   1.000000
   10       -0.967297   1.000000
   11       -0.893864   1.000000
   12       -0.486083   1.000000
   13       -0.459405   1.000000
   14       -0.043860   0.257909
   15        0.097107  -0.018102
   16        0.271970  -0.000006
   17        0.351311  -0.000000
   18        0.405780  -0.000000
   19        0.539031  -0.000000
   20        0.619754  -0.000000

 -0.2222222E+00  0.1111111E+00  0.1111111E+00  0.1097394E-01
    1       -3.734376   1.000000
    2       -2.348915   1.000000
    3       -2.207208   1.000000
    4       -1.872597   1.000000
    5       -1.724181   1.000000
    6       -1.605791   1.000000
    7       -1.465530   1.000000
    8       -1.449426   1.000000
    9       -1.402154   1.000000
   10       -1.064183   1.000000
   11       -0.984227   1.000000
   12       -0.579244   1.000000
   13       -0.205475   1.034338
   14        0.203829  -0.000307
   15        0.226472  -0.000091
   16        0.436735  -0.000000
   17        0.495747  -0.000000
   18        0.549029  -0.000000
   19        0.745977  -0.000000
   20        0.868561  -0.000000

 -0.1111111E+00  0.1111111E+00  0.1111111E+00  0.5486968E-02
    1       -3.872708   1.000000
    2       -2.453539   1.000000
    3       -2.269592   1.000000
    4       -1.931179   1.000000
    5       -1.737348   1.000000
    6       -1.713999   1.000000
    7       -1.525558   1.000000
    8       -1.473720   1.000000
    9       -1.445790   1.000000
   10       -1.122475   1.000000
   11       -1.025995   1.000000
   12       -0.636367   1.000000
   13       -0.095503   0.678017
   14        0.290021  -0.000002
   15        0.338839  -0.000000
   16        0.514531  -0.000000
   17        0.588206  -0.000000
   18        0.701389  -0.000000
   19        0.767806  -0.000000
   20        0.999404  -0.000000

  0.2222222E+00  0.2222222E+00  0.1111111E+00  0.5486968E-02
    1       -3.041436   1.000000
    2       -2.146397   1.000000
    3       -1.913058   1.000000
    4       -1.734292   1.000000
    5       -1.468385   1.000000
    6       -1.235608   1.000000
    7       -1.110363   1.000000
    8       -1.093117   1.000000
    9       -1.064734   1.000000
   10       -1.009968   1.000000
   11       -0.839315   1.000000
   12       -0.631415   1.000000
   13       -0.451527   1.000001
   14       -0.233540   1.023241
   15       -0.150386   0.980445
   16        0.074067  -0.028539
   17        0.129057  -0.007253
   18        0.214507  -0.000176
   19        0.325686  -0.000000
   20        0.541123  -0.000000

  0.3333333E+00  0.2222222E+00  0.1111111E+00  0.1097394E-01
    1       -2.668110   1.000000
    2       -2.405465   1.000000
    3       -1.741898   1.000000
    4       -1.525796   1.000000
    5       -1.407856   1.000000
    6       -1.338464   1.000000
    7       -1.246151   1.000000
    8       -1.124178   1.000000
    9       -0.863155   1.000000
   10       -0.821202   1.000000
   11       -0.691905   1.000000
   12       -0.661341   1.000000
   13       -0.577878   1.000000
   14       -0.426410   1.000004
   15       -0.141958   0.952837
   16       -0.057286   0.361368
   17        0.028246  -0.027231
   18        0.203538  -0.000311
   19        0.297014  -0.000001
   20        0.362075  -0.000000

  0.4444444E+00  0.2222222E+00  0.1111111E+00  0.1097394E-01
    1       -2.865010   1.000000
    2       -2.204176   1.000000
    3       -1.774716   1.000000
    4       -1.691540   1.000000
    5       -1.462243   1.000000
    6       -1.362114   1.000000
    7       -1.200173   1.000000
    8       -1.042563   1.000000
    9       -1.010093   1.000000
   10       -0.883702   1.000000
   11       -0.695874   1.000000
   12       -0.646587   1.000000
   13       -0.548494   1.000000
   14       -0.363127   1.000169
   15       -0.243051   1.018928
   16       -0.046235   0.275365
   17        0.077733  -0.026908
   18        0.233321  -0.000062
   19        0.286588  -0.000002
   20        0.398470  -0.000000

 -0.4444444E+00  0.2222222E+00  0.1111111E+00  0.1097394E-01
    1       -3.231329   1.000000
    2       -2.049316   1.000000
    3       -1.987123   1.000000
    4       -1.756303   1.000000