 running on    8 total cores
 distrk:  each k-point on    8 cores,    1 groups
 distr:  one band on    2 cores,    4 groups
 using from now: INCAR     
 vasp.5.4.4.18Apr17-6-g9f103f2a35 (build Dec  7 2020 12:43:57) complex           
 POSCAR found type information on POSCAR  Mo
 POSCAR found :  1 types and       5 ions
 scaLAPACK will be used

 ----------------------------------------------------------------------------- 
|                                                                             |
|  ADVICE TO THIS USER RUNNING 'VASP/VAMP'   (HEAR YOUR MASTER'S VOICE ...):  |
|                                                                             |
|      You have a (more or less) 'small supercell' and for smaller cells      |
|      it is recommended  to use the reciprocal-space projection scheme!      |
|      The real space optimization is not  efficient for small cells and it   |
|      is also less accurate ...                                              |
|      Therefore set LREAL=.FALSE. in the  INCAR file                         |
|                                                                             |
 ----------------------------------------------------------------------------- 

 LDA part: xc-table for Pade appr. of Perdew
 POSCAR, INCAR and KPOINTS ok, starting setup
 resort distribution
 resort distribution
 resort distribution
 resort distribution
 resort distribution
 resort distribution
 resort distribution
 resort distribution
 FFT: planning ...
 WAVECAR not read
 augmentation electrons   30.077641058593620     
 soft         electrons   0.0000000000000000     
 augmentation electrons   30.077641058593620     
 soft         electrons   0.0000000000000000     
 augmentation electrons   30.077641058593620     
 soft         electrons   0.0000000000000000     
 augmentation electrons   30.077641058593620     
 soft         electrons   0.0000000000000000     
 augmentation electrons   30.077641058593620     
 soft         electrons   0.0000000000000000     
 augmentation electrons   30.077641058593620     
 soft         electrons   0.0000000000000000     
 augmentation electrons   30.077641058593620     
 soft         electrons   0.0000000000000000     
 augmentation electrons   30.077641058593620     
 soft         electrons   0.0000000000000000     
 total        electrons   30.077641058593620     
 total        electrons   30.077641058593620     
 total        electrons   30.077641058593620     
 total        electrons   30.077641058593620     
 total        electrons   30.077641058593620     
 total        electrons   30.077641058593620     
 total        electrons   30.077641058593620     
 total        electrons   30.077641058593620     
 augmentation electrons   844.29844373390210     
 soft         electrons   0.0000000000000000     
 augmentation electrons   844.29844373390210     
 soft         electrons   0.0000000000000000     
 augmentation electrons   844.29844373390210     
 soft         electrons   0.0000000000000000     
 augmentation electrons   844.29844373390210     
 soft         electrons   0.0000000000000000     
 augmentation electrons   844.29844373390210     
 soft         electrons   0.0000000000000000     
 augmentation electrons   844.29844373390210     
 soft         electrons   0.0000000000000000     
 augmentation electrons   844.29844373390210     
 soft         electrons   0.0000000000000000     
 augmentation electrons   844.29844373390210     
 soft         electrons   0.0000000000000000     
 total        electrons   844.29844373390210     
 total        electrons   844.29844373390210     
 total        electrons   844.29844373390210     
 total        electrons   844.29844373390210     
 total        electrons   844.29844373390210     
 total        electrons   844.29844373390210     
 total        electrons   844.29844373390210     
 total        electrons   844.29844373390210     
 entering main loop
       N       E                     dE             d eps       ncg     rms          rms(c)
DAV:   1     0.839494578949E+02    0.83949E+02   -0.10653E+04  5000   0.115E+03
DAV:   2    -0.231743773795E+02   -0.10712E+03   -0.10139E+03  6252   0.190E+02
DAV:   3    -0.372448213825E+02   -0.14070E+02   -0.13296E+02  9088   0.499E+01
DAV:   4    -0.381786403342E+02   -0.93382E+00   -0.88599E+00  8640   0.125E+01
DAV:   5    -0.382548340034E+02   -0.76194E-01   -0.71827E-01  9004   0.307E+00    0.117E+01
RMM:   6    -0.399023026328E+02   -0.16475E+01   -0.44952E+01  7196   0.235E+01    0.149E+01
RMM:   7    -0.347131265574E+02    0.51892E+01   -0.14224E+01  6313   0.139E+01    0.400E+00
RMM:   8    -0.351455077748E+02   -0.43238E+00   -0.45703E+00  7723   0.638E+00    0.647E+00
RMM:   9    -0.345383478516E+02    0.60716E+00   -0.10573E+00  7647   0.313E+00    0.281E+00
RMM:  10    -0.345470591552E+02   -0.87113E-02   -0.15625E+00  7873   0.335E+00    0.263E+00
RMM:  11    -0.344559524963E+02    0.91107E-01   -0.11785E-01  7033   0.133E+00    0.104E+00
RMM:  12    -0.344498499909E+02    0.61025E-02   -0.87223E-02  8287   0.747E-01    0.338E-01
RMM:  13    -0.344524863952E+02   -0.26364E-02   -0.49264E-02  8613   0.463E-01    0.296E-01
RMM:  14    -0.344513613657E+02    0.11250E-02   -0.46336E-03  7699   0.207E-01    0.715E-02
RMM:  15    -0.344516445927E+02   -0.28323E-03   -0.34991E-03  8743   0.927E-02    0.300E-02
RMM:  16    -0.344516807665E+02   -0.36174E-04   -0.38636E-04  8271   0.391E-02    0.250E-02
RMM:  17    -0.344516975703E+02   -0.16804E-04   -0.27477E-04  8486   0.206E-02    0.540E-03
RMM:  18    -0.344517026245E+02   -0.50542E-05   -0.47002E-05  5705   0.998E-03    0.236E-03
RMM:  19    -0.344517039346E+02   -0.13101E-05   -0.14201E-05  4748   0.672E-03    0.145E-03
RMM:  20    -0.344517017003E+02    0.22343E-05    0.23220E-05  4330   0.516E-03    0.103E-03
RMM:  21    -0.344516985834E+02    0.31169E-05    0.30575E-05  4073   0.432E-03    0.691E-04
RMM:  22    -0.344516952831E+02    0.33003E-05    0.33749E-05  3824   0.368E-03    0.120E-03
RMM:  23    -0.344516916058E+02    0.36773E-05    0.36250E-05  3723   0.338E-03    0.320E-04
RMM:  24    -0.344516884835E+02    0.31223E-05    0.31027E-05  3451   0.299E-03    0.163E-04
RMM:  25    -0.344516852188E+02    0.32647E-05    0.32305E-05  3221   0.272E-03    0.214E-04
RMM:  26    -0.344516825634E+02    0.26553E-05    0.26339E-05  2887   0.248E-03    0.193E-04
RMM:  27    -0.344516798253E+02    0.27381E-05    0.27034E-05  2658   0.228E-03    0.549E-05
RMM:  28    -0.344516775922E+02    0.22331E-05    0.21978E-05  2434   0.215E-03    0.634E-05
RMM:  29    -0.344516753125E+02    0.22798E-05    0.22362E-05  2283   0.205E-03    0.134E-04
RMM:  30    -0.344516733740E+02    0.19385E-05    0.18608E-05  2143   0.197E-03    0.127E-04
RMM:  31    -0.344516712272E+02    0.21468E-05    0.19090E-05  2019   0.191E-03    0.182E-04
RMM:  32    -0.344516695734E+02    0.16538E-05    0.15508E-05  1920   0.186E-03    0.238E-04
RMM:  33    -0.344516680738E+02    0.14995E-05    0.14730E-05  1823   0.181E-03    0.259E-04
RMM:  34    -0.344516668891E+02    0.11848E-05    0.11668E-05  1746   0.178E-03    0.295E-04
RMM:  35    -0.344516657609E+02    0.11281E-05    0.11194E-05  1696   0.175E-03    0.315E-04
RMM:  36    -0.344516648331E+02    0.92779E-06    0.92064E-06  1625   0.172E-03

 ----------------------------------------------------------------------------- 
|                                                                             |
|  ADVICE TO THIS USER RUNNING 'VASP/VAMP'   (HEAR YOUR MASTER'S VOICE ...):  |
|                                                                             |
|      Your highest band is occupied at some k-points! Unless you are         |
|      performing a calculation for an insulator or semiconductor, without    |
|      unoccupied bands, you have included TOO FEW BANDS!! Please increase    |
|      the parameter NBANDS in file INCAR to ensure that the highest band     |
|      is unoccupied at all k-points. It is always recommended to             |
|      include a few unoccupied bands to accelerate the convergence of        |
|      molecular dynamics runs (even for insulators or semiconductors).       |
|      Because the presence of unoccupied bands improves wavefunction         |
|      prediction, and helps to suppress 'band-crossings.'                    |
|                                                                             |
 ----------------------------------------------------------------------------- 

   1 F= -.34451665E+02 E0= -.34450762E+02  d E =-.270713E-02
 writing wavefunctions
 augmentation electrons   5.9925711776740362     
 soft         electrons   24.097022964579221     
 augmentation electrons   5.9925711776740362     
 soft         electrons   24.097022964579221     
 augmentation electrons   5.9925711776740362     
 soft         electrons   24.097022964579221     
 augmentation electrons   5.9925711776740362     
 soft         electrons   24.097022964579221     
 augmentation electrons   5.9925711776740362     
 soft         electrons   24.097022964579221     
 augmentation electrons   5.9925711776740362     
 soft         electrons   24.097022964579221     
 augmentation electrons   5.9925711776740362     
 soft         electrons   24.097022964579221     
 augmentation electrons   5.9925711776740362     
 soft         electrons   24.097022964579221     
 total        electrons   30.089594142253258     
 total        electrons   30.089594142253258     
 total        electrons   30.089594142253258     
 total        electrons   30.089594142253258     
 total        electrons   30.089594142253258     
 total        electrons   30.089594142253258     
 total        electrons   30.089594142253258     
 total        electrons   30.089594142253258     
