   49   49   85    1
  0.2046891E+02  0.8733603E-09  0.6079487E-09  0.2183401E-08  0.5000000E-15
   1.0000000000000000E-004
  CAR 
 Name                                    
    185     50    120

  0.3742002E-15  0.3742002E-15  0.1262379E-14  0.1010101E-01
    1      -13.209419   1.000000
    2      -11.866748   1.000000
    3      -11.759663   1.000000
    4      -11.350381   1.000000
    5      -10.672446   1.000000
    6      -10.450418   1.000000
    7      -10.305318   1.000000
    8      -10.217620   1.000000
    9      -10.107506   1.000000
   10       -9.919208   1.000000
   11       -9.917383   1.000000
   12       -9.585844   1.000000
   13       -9.390115   1.000000
   14       -9.375813   1.000000
   15       -9.000818   1.000000
   16       -8.975244   1.000000
   17       -8.345450   1.000000
   18       -7.971678   1.000000
   19       -7.937473   1.000000
   20       -7.668985   1.000000
   21       -7.645909   1.000000
   22       -7.448362   1.000000
   23       -7.388908   1.000000
   24       -7.307582   1.000000
   25       -7.249098   1.000000
   26       -7.201081   1.000000
   27       -6.516467   1.000000
   28       -6.428940   1.000000
   29       -5.808436   1.000000
   30       -5.639765   1.000000
   31       -5.555645   1.000000
   32       -5.456488   1.000000
   33       -5.111918   1.000000
   34       -4.955588   1.000000
   35       -4.917843   1.000000
   36       -4.779240   1.000000
   37       -4.569587   1.000000
   38       -4.513711   1.000000
   39       -4.502721   1.000000
   40       -4.337199   1.000000
   41       -4.223488   1.000000
   42       -4.140026   1.000000
   43       -4.058268   1.000000
   44       -3.991432   1.000000
   45       -3.946607   1.000000
   46       -3.841246   1.000000
   47       -3.797053   1.000000
   48       -3.769976   1.000000
   49       -3.704501   1.000000
   50       -3.676319   1.000000
   51       -3.637190   1.000000
   52       -3.451047   1.000000
   53       -3.346537   1.000000
   54       -3.274625   1.000000
   55       -3.212321   1.000000
   56       -3.170262   1.000000
   57       -3.050115   1.000000
   58       -3.025745   1.000000
   59       -2.977499   1.000000
   60       -2.776674   1.000000
   61       -2.741183   1.000000
   62       -2.735169   1.000000
   63       -2.608924   1.000000
   64       -2.555997   1.000000
   65       -2.507361   1.000000
   66       -2.484571   1.000000
   67       -2.367690   1.000000
   68       -2.286365   1.000000
   69       -2.259268   1.000000
   70       -2.220447   1.000000
   71       -2.173527   1.000000
   72       -1.702283   1.000000
   73       -1.635443   1.000000
   74       -1.468809   1.000000
   75       -1.414354   1.000000
   76       -1.390693   1.000000
   77       -1.323593   1.000000
   78       -1.264473   1.000000
   79       -1.190949   1.000000
   80       -1.090707   1.000000
   81       -0.773624   1.000000
   82       -0.622642   1.000000
   83       -0.458331   1.000000
   84       -0.319907   1.000000
   85       -0.116431   1.000000
   86       -0.096623   1.000000
   87        0.010370   1.000000
   88        0.026751   1.000000
   89        0.112163   1.000000
   90        0.469881   1.004224
   91        0.482897   1.006698
   92        0.781787  -0.017048
   93        0.822183  -0.033737
   94        0.831448  -0.030548
   95        0.904747  -0.004527
   96        0.987508  -0.000097
   97        1.068950  -0.000001
   98        1.194801  -0.000000
   99        1.263193  -0.000000
  100        1.303578  -0.000000
  101        1.318533  -0.000000
  102        1.398754  -0.000000
  103        1.441450  -0.000000
  104        1.459534  -0.000000
  105        1.472410  -0.000000
  106        1.721278  -0.000000
  107        1.848325  -0.000000
  108        1.884638  -0.000000
  109        1.913768  -0.000000
  110        1.930755  -0.000000
  111        1.989090  -0.000000
  112        2.041121  -0.000000
  113        2.076066  -0.000000
  114        2.099858  -0.000000
  115        2.154611  -0.000000
  116        2.229968  -0.000000
  117        2.270485  -0.000000
  118        2.433879  -0.000000
  119        2.449847  -0.000000
  120        2.492275  -0.000000

  0.1111111E+00  0.3694577E-15  0.1266495E-14  0.2020202E-01
    1      -13.184327   1.000000
    2      -11.891004   1.000000
    3      -11.842803   1.000000
    4      -11.270157   1.000000
    5      -10.664075   1.000000
    6      -10.478734   1.000000
    7      -10.292689   1.000000
    8      -10.219860   1.000000
    9      -10.111055   1.000000
   10       -9.913774   1.000000
   11       -9.906669   1.000000
   12       -9.585748   1.000000
   13       -9.389672   1.000000
   14       -9.379459   1.000000
   15       -8.985303   1.000000
   16       -8.957081   1.000000
   17       -8.334422   1.000000
   18       -7.971148   1.000000
   19       -7.934554   1.000000
   20       -7.674978   1.000000
   21       -7.660690   1.000000
   22       -7.508476   1.000000
   23       -7.449701   1.000000
   24       -7.296024   1.000000
   25       -7.244080   1.000000
   26       -7.144056   1.000000
   27       -6.619286   1.000000
   28       -6.423462   1.000000
   29       -5.773185   1.000000
   30       -5.608771   1.000000
   31       -5.527003   1.000000
   32       -5.393290   1.000000
   33       -5.148313   1.000000
   34       -4.954224   1.000000
   35       -4.893209   1.000000
   36       -4.816905   1.000000
   37       -4.694027   1.000000
   38       -4.504746   1.000000
   39       -4.457794   1.000000
   40       -4.274223   1.000000
   41       -4.254957   1.000000
   42       -4.060995   1.000000
   43       -4.007408   1.000000
   44       -3.973137   1.000000
   45       -3.925052   1.000000
   46       -3.825138   1.000000
   47       -3.806220   1.000000
   48       -3.787697   1.000000
   49       -3.694651   1.000000
   50       -3.659010   1.000000
   51       -3.617169   1.000000
   52       -3.446523   1.000000
   53       -3.347929   1.000000
   54       -3.259093   1.000000
   55       -3.208014   1.000000
   56       -3.156012   1.000000
   57       -3.081306   1.000000
   58       -3.055853   1.000000
   59       -2.998568   1.000000
   60       -2.792015   1.000000
   61       -2.743551   1.000000
   62       -2.734133   1.000000
   63       -2.627280   1.000000
   64       -2.594673   1.000000
   65       -2.502942   1.000000
   66       -2.465026   1.000000
   67       -2.355947   1.000000
   68       -2.278051   1.000000
   69       -2.245068   1.000000
   70       -2.223009   1.000000
   71       -2.147763   1.000000
   72       -1.779465   1.000000
   73       -1.615214   1.000000
   74       -1.500168   1.000000
   75       -1.454874   1.000000
   76       -1.422355   1.000000
   77       -1.314253   1.000000
   78       -1.281949   1.000000
   79       -1.207446   1.000000
   80       -1.071646   1.000000
   81       -0.698796   1.000000
   82       -0.656285   1.000000
   83       -0.478330   1.000000
   84       -0.352096   1.000000
   85       -0.158725   1.000000
   86       -0.080411   1.000000
   87        0.009148   1.000000
   88        0.111520   1.000000
   89        0.129001   1.000000
   90        0.425645   1.000647
   91        0.442923   1.001423
   92        0.775705  -0.006729
   93        0.788477  -0.025356
   94        0.936608  -0.001246
   95        0.961320  -0.000389
   96        0.981834  -0.000133
   97        1.013635  -0.000021
   98        1.226845  -0.000000
   99        1.234632  -0.000000
  100        1.323064  -0.000000
  101        1.343958  -0.000000
  102        1.409629  -0.000000
  103        1.450959  -0.000000
  104        1.477211  -0.000000
  105        1.492829  -0.000000
  106        1.744518  -0.000000
  107        1.876917  -0.000000
  108        1.893418  -0.000000
  109        1.910022  -0.000000
  110        1.945575  -0.000000
  111        1.997068  -0.000000
  112        2.042445  -0.000000
  113        2.079112  -0.000000
  114        2.123644  -0.000000
  115        2.172741  -0.000000
  116        2.226529  -0.000000
  117        2.261887  -0.000000
  118        2.420640  -0.000000
  119        2.441769  -0.000000
  120        2.495877  -0.000000

  0.2222222E+00  0.3681327E-15  0.1265439E-14  0.2020202E-01
    1      -13.109691   1.000000
    2      -12.129721   1.000000
    3      -11.778859   1.000000
    4      -11.199343   1.000000
    5      -10.642937   1.000000
    6      -10.515645   1.000000
    7      -10.262967   1.000000
    8      -10.225679   1.000000
    9      -10.107823   1.000000
   10       -9.898617   1.000000
   11       -9.883023   1.000000
   12       -9.609344   1.000000
   13       -9.399641   1.000000
   14       -9.383100   1.000000
   15       -8.938938   1.000000
   16       -8.903232   1.000000
   17       -8.297330   1.000000
   18       -7.964163   1.000000
   19       -7.927995   1.000000
   20       -7.728018   1.000000
   21       -7.716741   1.000000
   22       -7.598293   1.000000
   23       -7.526784   1.000000
   24       -7.312445   1.000000
   25       -7.268084   1.000000
   26       -6.982679   1.000000
   27       -6.830102   1.000000
   28       -6.417388   1.000000
   29       -5.711637   1.000000
   30       -5.553864   1.000000
   31       -5.490571   1.000000
   32       -5.358105   1.000000
   33       -5.213616   1.000000
   34       -4.958169   1.000000
   35       -4.859710   1.000000
   36       -4.824470   1.000000
   37       -4.727486   1.000000
   38       -4.476228   1.000000
   39       -4.338047   1.000000
   40       -4.263096   1.000000
   41       -4.230338   1.000000
   42       -4.064420   1.000000
   43       -3.967816   1.000000
   44       -3.937373   1.000000
   45       -3.876416   1.000000
   46       -3.853611   1.000000
   47       -3.755880   1.000000
   48       -3.720019   1.000000
   49       -3.662768   1.000000
   50       -3.608738   1.000000
   51       -3.558600   1.000000
   52       -3.448861   1.000000
   53       -3.357180   1.000000
   54       -3.254529   1.000000
   55       -3.198532   1.000000
   56       -3.168056   1.000000
   57       -3.129292   1.000000
   58       -3.090827   1.000000
   59       -3.000040   1.000000
   60       -2.806312   1.000000
   61       -2.758603   1.000000
   62       -2.732620   1.000000
   63       -2.657087   1.000000
   64       -2.626913   1.000000
   65       -2.521965   1.000000
   66       -2.487808   1.000000
   67       -2.420161   1.000000
   68       -2.310312   1.000000
   69       -2.170313   1.000000
   70       -2.126174   1.000000
   71       -2.067589   1.000000
   72       -1.944304   1.000000
   73       -1.621965   1.000000
   74       -1.560895   1.000000
   75       -1.530815   1.000000
   76       -1.490445   1.000000
   77       -1.386020   1.000000
   78       -1.282362   1.000000
   79       -1.247303   1.000000
   80       -0.974868   1.000000
   81       -0.823530   1.000000
   82       -0.550992   1.000000
   83       -0.476425   1.000000
   84       -0.421396   1.000000
   85       -0.201224   1.000000
   86       -0.042128   1.000000
   87        0.026965   1.000000
   88        0.143762   1.000000
   89        0.298190   1.000000
   90        0.335107   1.000004
   91        0.358881   1.000016
   92        0.678984   0.578089
   93        0.898506  -0.005661
   94        0.935979  -0.001281
   95        0.956898  -0.000484
   96        1.015768  -0.000018
   97        1.119040  -0.000000
   98        1.208546  -0.000000
   99        1.253755  -0.000000
  100        1.315362  -0.000000
  101        1.384409  -0.000000
  102        1.449824  -0.000000
  103        1.476729  -0.000000
  104        1.531111  -0.000000
  105        1.569186  -0.000000
  106        1.818390  -0.000000
  107        1.839684  -0.000000
  108        1.913378  -0.000000
  109        1.949212  -0.000000
  110        1.997725  -0.000000
  111        2.017098  -0.000000
  112        2.065167  -0.000000
  113        2.088625  -0.000000
  114        2.172319  -0.000000
  115        2.194467  -0.000000
  116        2.238919  -0.000000
  117        2.284175  -0.000000
  118        2.380832  -0.000000
  119        2.416127  -0.000000
  120        2.450134  -0.000000

  0.3333333E+00  0.3672355E-15  0.1308213E-14  0.2020202E-01
    1      -12.987502   1.000000
    2      -12.381284   1.000000
    3      -11.674872   1.000000
    4      -11.251026   1.000000
    5      -10.611175   1.000000
    6      -10.507752   1.000000
    7      -10.241912   1.000000
    8      -10.232531   1.000000
    9      -10.066230   1.000000
   10       -9.882112   1.000000
   11       -9.859177   1.000000
   12       -9.684242   1.000000
   13       -9.409655   1.000000
   14       -9.388902   1.000000
   15       -8.870296   1.000000
   16       -8.821906   1.000000
   17       -8.256801   1.000000
   18       -8.003821   1.000000
   19       -7.926477   1.000000
   20       -7.807755   1.000000
   21       -7.778001   1.000000
   22       -7.618583   1.000000
   23       -7.533821   1.000000
   24       -7.354685   1.000000
   25       -7.325503   1.000000
   26       -7.074980   1.000000
   27       -6.758956   1.000000
   28       -6.361658   1.000000
   29       -5.799439   1.000000
   30       -5.606698   1.000000
   31       -5.510685   1.000000
   32       -5.456845   1.000000
   33       -5.056520   1.000000
   34       -4.889325   1.000000
   35       -4.790460   1.000000
   36       -4.738757   1.000000
   37       -4.707573   1.000000
   38       -4.406313   1.000000
   39       -4.348855   1.000000
   40       -4.174473   1.000000
   41       -4.134704   1.000000
   42       -4.118024   1.000000
   43       -4.071316   1.000000
   44       -3.947766   1.000000
   45       -3.865322   1.000000
   46       -3.821673   1.000000
   47       -3.695305   1.000000
   48       -3.628611   1.000000
   49       -3.597068   1.000000
   50       -3.567111   1.000000
   51       -3.493197   1.000000
   52       -3.454716   1.000000
   53       -3.379682   1.000000
   54       -3.321640   1.000000
   55       -3.237726   1.000000
   56       -3.157301   1.000000
   57       -3.112927   1.000000
   58       -3.012393   1.000000
   59       -2.978967   1.000000
   60       -2.837281   1.000000
   61       -2.752072   1.000000
   62       -2.744182   1.000000
   63       -2.698036   1.000000
   64       -2.678053   1.000000
   65       -2.585656   1.000000
   66       -2.501342   1.000000
   67       -2.431612   1.000000
   68       -2.360580   1.000000
   69       -2.157235   1.000000
   70       -2.065088   1.000000
   71       -2.045318   1.000000
   72       -1.936407   1.000000
   73       -1.730137   1.000000
   74       -1.640491   1.000000
   75       -1.565546   1.000000
   76       -1.496723   1.000000
   77       -1.470303   1.000000
   78       -1.317073   1.000000
   79       -1.281377   1.000000
   80       -1.031082   1.000000
   81       -0.795731   1.000000
   82       -0.625435   1.000000
   83       -0.568547   1.000000
   84       -0.302267   1.000000
   85       -0.183592   1.000000
   86       -0.000238   1.000000
   87        0.099167   1.000000
   88        0.154306   1.000000
   89        0.236825   1.000000
   90        0.301223   1.000000
   91        0.530629   1.024165
   92        0.544723   1.030412
   93        0.897131  -0.005939
   94        0.938068  -0.001168
   95        0.982106  -0.000131
   96        1.063077  -0.000001
   97        1.131633  -0.000000
   98        1.146069  -0.000000
   99        1.275025  -0.000000
  100        1.366530  -0.000000
  101        1.498530  -0.000000
  102        1.543356  -0.000000
  103        1.569556  -0.000000
  104        1.586229  -0.000000
  105        1.638258  -0.000000
  106        1.711833  -0.000000
  107        1.892365  -0.000000
  108        1.932859  -0.000000
  109        1.985574  -0.000000
  110        2.055523  -0.000000
  111        2.070268  -0.000000
  112        2.097568  -0.000000
  113        2.126581  -0.000000
  114        2.169174  -0.000000
  115        2.236549  -0.000000
  116        2.304718  -0.000000
  117        2.327167  -0.000000
  118        2.339687  -0.000000
  119        2.357884  -0.000000
  120        2.401032  -0.000000

  0.4444444E+00  0.3795814E-15  0.1235432E-14  0.2020202E-01
    1      -12.821354   1.000000
    2      -12.616210   1.000000
    3      -11.540946   1.000000
    4      -11.383287   1.000000
    5      -10.583245   1.000000
    6      -10.486883   1.000000
    7      -10.238313   1.000000
    8      -10.237065   1.000000
    9       -9.987183   1.000000
   10       -9.884707   1.000000
   11       -9.843976   1.000000
   12       -9.772686   1.000000
   13       -9.409004   1.000000
   14       -9.399490   1.000000
   15       -8.811413   1.000000
   16       -8.748362   1.000000
   17       -8.246431   1.000000
   18       -8.094491   1.000000
   19       -7.971680   1.000000
   20       -7.804307   1.000000
   21       -7.739156   1.000000
   22       -7.638198   1.000000
   23       -7.463600   1.000000
   24       -7.389523   1.000000
   25       -7.374515   1.000000
   26       -7.298030   1.000000
   27       -6.511085   1.000000
   28       -6.296891   1.000000
   29       -6.083846   1.000000
   30       -5.647165   1.000000
   31       -5.501337   1.000000
   32       -5.488567   1.000000
   33       -5.010645   1.000000
   34       -4.746522   1.000000
   35       -4.709396   1.000000
   36       -4.625651   1.000000
   37       -4.603449   1.000000
   38       -4.472062   1.000000
   39       -4.410036   1.000000
   40       -4.189556   1.000000
   41       -4.183138   1.000000
   42       -4.088628   1.000000
   43       -4.013515   1.000000
   44       -3.959722   1.000000
   45       -3.815291   1.000000
   46       -3.753052   1.000000
   47       -3.715960   1.000000
   48       -3.672676   1.000000
   49       -3.640409   1.000000
   50       -3.485143   1.000000
   51       -3.462373   1.000000
   52       -3.429403   1.000000
   53       -3.374580   1.000000
   54       -3.339313   1.000000
   55       -3.270096   1.000000
   56       -3.111171   1.000000
   57       -3.058766   1.000000
   58       -2.991113   1.000000
   59       -2.931566   1.000000
   60       -2.866187   1.000000
   61       -2.789938   1.000000
   62       -2.772156   1.000000
   63       -2.734236   1.000000
   64       -2.687553   1.000000
   65       -2.646314   1.000000
   66       -2.464654   1.000000
   67       -2.421950   1.000000
   68       -2.360343   1.000000
   69       -2.269079   1.000000
   70       -2.098154   1.000000
   71       -2.014175   1.000000
   72       -1.855841   1.000000
   73       -1.752123   1.000000
   74       -1.631323   1.000000
   75       -1.625224   1.000000
   76       -1.589261   1.000000
   77       -1.444649   1.000000
   78       -1.326382   1.000000
   79       -1.290603   1.000000
   80       -1.196912   1.000000
   81       -0.749653   1.000000
   82       -0.650410   1.000000
   83       -0.570077   1.000000
   84       -0.368086   1.000000
   85       -0.075759   1.000000
   86       -0.006536   1.000000
   87        0.101031   1.000000
   88        0.176001   1.000000
   89        0.291911   1.000000
   90        0.366547   1.000026
   91        0.419004   1.000470
   92        0.647424   0.815673
   93        0.798440  -0.032724
   94        0.956916  -0.000483
   95        0.986321  -0.000104
   96        1.027372  -0.000009
   97        1.093913  -0.000000
   98        1.221577  -0.000000
   99        1.328961  -0.000000
  100        1.378103  -0.000000
  101        1.521693  -0.000000
  102        1.551396  -0.000000
  103        1.580773  -0.000000
  104        1.640363  -0.000000
  105        1.713754  -0.000000
  106        1.817148  -0.000000
  107        1.883952  -0.000000
  108        1.993828  -0.000000
  109        2.004371  -0.000000
  110        2.090948  -0.000000
  111        2.118940  -0.000000
  112        2.151290  -0.000000
  113        2.173394  -0.000000
  114        2.191683  -0.000000
  115        2.216530  -0.000000
  116        2.246418  -0.000000
  117        2.270519  -0.000000
  118        2.302307  -0.000000
  119        2.313961  -0.000000
  120        2.411946  -0.000000

  0.3742002E-15  0.9090909E-01  0.1339361E-14  0.2020202E-01
    1      -13.176781   1.000000
    2      -11.838156   1.000000
    3      -11.768640   1.000000
    4      -11.310644   1.000000
    5      -10.656176   1.000000
    6      -10.487681   1.000000
    7      -10.448003   1.000000
    8      -10.428649   1.000000
    9      -10.194447   1.000000
   10       -9.865755   1.000000
   11       -9.779144   1.000000
   12       -9.542416   1.000000
   13       -9.390747   1.000000
   14       -9.366688   1.000000
   15       -8.958478   1.000000
   16       -8.923156   1.000000
   17       -8.338285   1.000000
   18       -7.992466   1.000000
   19       -7.960504   1.000000
   20       -7.846789   1.000000
   21       -7.796189   1.000000
   22       -7.318261   1.000000
   23       -7.223047   1.000000
   24       -7.147560   1.000000
   25       -7.068367   1.000000
   26       -7.033397   1.000000
   27       -6.563332   1.000000
   28       -6.396732   1.000000
   29       -5.785555   1.000000
   30       -5.667225   1.000000
   31       -5.571820   1.000000
   32       -5.445205   1.000000
   33       -5.165331   1.000000
   34       -5.008912   1.000000
   35       -4.843780   1.000000
   36       -4.757268   1.000000
   37       -4.591769   1.000000
   38       -4.496251   1.000000
   39       -4.482490   1.000000
   40       -4.344026   1.000000
   41       -4.279001   1.000000
   42       -4.198503   1.000000
   43       -4.150557   1.000000
   44       -4.006106   1.000000
   45       -3.971945   1.000000
   46       -3.931939   1.000000
   47       -3.858143   1.000000
   48       -3.777230   1.000000
   49       -3.714650   1.000000
   50       -3.664786   1.000000
   51       -3.635127   1.000000
   52       -3.479354   1.000000
   53       -3.381376   1.000000
   54       -3.322424   1.000000
   55       -3.272092   1.000000
   56       -3.183940   1.000000
   57       -3.050212   1.000000
   58       -3.026239   1.000000
   59       -2.955051   1.000000
   60       -2.816123   1.000000
   61       -2.721762   1.000000
   62       -2.698324   1.000000
   63       -2.641870   1.000000
   64       -2.523462   1.000000
   65       -2.502804   1.000000
   66       -2.462868   1.000000
   67       -2.376911   1.000000
   68       -2.322765   1.000000
   69       -2.255155   1.000000
   70       -2.140562   1.000000
   71       -2.120834   1.000000
   72       -1.903779   1.000000
   73       -1.627202   1.000000
   74       -1.444330   1.000000
   75       -1.423073   1.000000
   76       -1.368841   1.000000
   77       -1.298116   1.000000
   78       -1.240250   1.000000
   79       -1.129977   1.000000
   80       -1.079274   1.000000
   81       -0.812187   1.000000
   82       -0.556851   1.000000
   83       -0.479312   1.000000
   84       -0.329038   1.000000
   85       -0.188846   1.000000
   86       -0.145921   1.000000
   87       -0.058234   1.000000
   88       -0.037026   1.000000
   89        0.229364   1.000000
   90        0.368478   1.000030
   91        0.502625   1.012363
   92        0.683886   0.536934
   93        0.746645   0.087340
   94        0.773772  -0.002846
   95        0.857854  -0.018723
   96        0.976157  -0.000181
   97        1.059394  -0.000001
   98        1.157531  -0.000000
   99        1.197791  -0.000000
  100        1.295961  -0.000000
  101        1.368724  -0.000000
  102        1.461104  -0.000000
  103        1.502009  -0.000000
  104        1.526369  -0.000000
  105        1.646280  -0.000000
  106        1.728862  -0.000000
  107        1.827968  -0.000000
  108        1.868995  -0.000000
  109        1.917979  -0.000000
  110        1.947978  -0.000000
  111        2.010019  -0.000000
  112        2.031292  -0.000000
  113        2.084906  -0.000000
  114        2.109674  -0.000000
  115        2.185719  -0.000000
  116        2.240779  -0.000000
  117        2.272337  -0.000000
  118        2.382880  -0.000000
  119        2.424129  -0.000000
  120        2.472084  -0.000000

  0.1111111E+00  0.9090909E-01  0.1250028E-14  0.2020202E-01
    1      -13.131319   1.000000
    2      -11.963693   1.000000
    3      -11.797130   1.000000
    4      -11.208558   1.000000
    5      -10.640942   1.000000
    6      -10.553337   1.000000
    7      -10.477744   1.000000
    8      -10.380002   1.000000
    9      -10.145613   1.000000
   10       -9.857700   1.000000
   11       -9.750726   1.000000
   12       -9.554744   1.000000
   13       -9.430410   1.000000
   14       -9.396437   1.000000
   15       -8.920029   1.000000
   16       -8.865954   1.000000
   17       -8.331911   1.000000
   18       -7.998247   1.000000
   19       -7.943657   1.000000
   20       -7.915127   1.000000
   21       -7.788542   1.000000
   22       -7.433284   1.000000
   23       -7.269859   1.000000
   24       -7.093659   1.000000
   25       -7.035854   1.000000
   26       -7.014889   1.000000
   27       -6.697644   1.000000
   28       -6.397701   1.000000
   29       -5.759775   1.000000
   30       -5.654513   1.000000
   31       -5.486165   1.000000
   32       -5.321901   1.000000
   33       -5.227548   1.000000
   34       -5.060999   1.000000
   35       -4.842265   1.000000
   36       -4.795311   1.000000
   37       -4.663979   1.000000
   38       -4.480377   1.000000
   39       -4.420910   1.000000
   40       -4.331110   1.000000
   41       -4.276338   1.000000
   42       -4.174667   1.000000
   43       -4.045416   1.000000
   44       -3.967020   1.000000
   45       -3.919912   1.000000
   46       -3.899416   1.000000
   47       -3.822042   1.000000
   48       -3.763200   1.000000
   49       -3.717309   1.000000
   50       -3.630747   1.000000
   51       -3.600227   1.000000
   52       -3.511877   1.000000
   53       -3.394231   1.000000
   54       -3.305371   1.000000
   55       -3.262836   1.000000
   56       -3.127267   1.000000
   57       -3.118382   1.000000
   58       -3.049571   1.000000
   59       -2.929633   1.000000
   60       -2.858327   1.000000
   61       -2.753913   1.000000
   62       -2.721222   1.000000
   63       -2.686587   1.000000
   64       -2.561628   1.000000
   65       -2.512519   1.000000
   66       -2.476700   1.000000
   67       -2.352838   1.000000
   68       -2.284603   1.000000
   69       -2.192167   1.000000
   70       -2.154864   1.000000
   71       -2.129914   1.000000
   72       -1.957218   1.000000
   73       -1.607287   1.000000
   74       -1.542420   1.000000
   75       -1.484667   1.000000
   76       -1.435744   1.000000
   77       -1.303887   1.000000
   78       -1.282289   1.000000
   79       -1.118360   1.000000
   80       -1.010663   1.000000
   81       -0.848784   1.000000
   82       -0.582423   1.000000
   83       -0.499320   1.000000
   84       -0.357051   1.000000
   85       -0.236456   1.000000
   86       -0.143434   1.000000
   87        0.039489   1.000000
   88        0.099383   1.000000
   89        0.209891   1.000000
   90        0.321878   1.000001
   91        0.474283   1.004961
   92        0.690087   0.484495
   93        0.744078   0.099609
   94        0.886209  -0.008536
   95        0.928465  -0.001773
   96        0.950225  -0.000667
   97        1.041017  -0.000004
   98        1.126938  -0.000000
   99        1.150349  -0.000000
  100        1.361228  -0.000000
  101        1.442476  -0.000000
  102        1.488416  -0.000000
  103        1.502406  -0.000000
  104        1.563330  -0.000000
  105        1.617824  -0.000000
  106        1.743648  -0.000000
  107        1.866433  -0.000000
  108        1.901570  -0.000000
  109        1.920953  -0.000000
  110        1.938042  -0.000000
  111        2.011797  -0.000000
  112        2.036144  -0.000000
  113        2.128271  -0.000000
  114        2.140311  -0.000000
  115        2.201760  -0.000000
  116        2.242693  -0.000000
  117        2.280434  -0.000000
  118        2.370377  -0.000000
  119        2.407391  -0.000000
  120        2.437568  -0.000000

  0.2222222E+00  0.9090909E-01  0.1327369E-14  0.2020202E-01
    1      -13.037198   1.000000
    2      -12.210924   1.000000
    3      -11.716313   1.000000
    4      -11.186051   1.000000
    5      -10.624137   1.000000
    6      -10.596571   1.000000
    7      -10.497370   1.000000
    8      -10.323718   1.000000
    9      -10.075576   1.000000
   10       -9.823491   1.000000
   11       -9.699850   1.000000
   12       -9.616470   1.000000
   13       -9.499491   1.000000
   14       -9.434060   1.000000
   15       -8.843676   1.000000
   16       -8.766127   1.000000
   17       -8.310189   1.000000
   18       -8.121249   1.000000
   19       -7.941166   1.000000
   20       -7.838899   1.000000
   21       -7.809467   1.000000
   22       -7.583649   1.000000
   23       -7.359615   1.000000
   24       -7.112475   1.000000
   25       -7.038364   1.000000
   26       -6.874222   1.000000
   27       -6.861929   1.000000
   28       -6.378520   1.000000
   29       -5.759078   1.000000
   30       -5.639783   1.000000
   31       -5.473450   1.000000
   32       -5.390416   1.000000
   33       -5.127917   1.000000
   34       -5.036609   1.000000
   35       -4.874287   1.000000
   36       -4.790688   1.000000
   37       -4.620858   1.000000
   38       -4.452019   1.000000
   39       -4.352883   1.000000
   40       -4.284416   1.000000
   41       -4.233899   1.000000
   42       -4.158373   1.000000
   43       -4.037885   1.000000
   44       -3.942404   1.000000
   45       -3.892872   1.000000
   46       -3.866602   1.000000
   47       -3.757656   1.000000
   48       -3.708961   1.000000