    3    3   60    1
  0.7818830E+01  0.2980000E-09  0.2980000E-09  0.3050000E-09  0.5000000E-15
   1.0000000000000000E-004
  CAR 
 Name                                    
     11    216     10

  0.3742002E-15  0.3742002E-15  0.3742002E-15  0.2962963E-03
    1       -5.675804   1.000000
    2        5.221709   1.000000
    3        5.221710   1.000000
    4        6.016802   1.000000
    5        6.574397   1.000000
    6        9.468696  -0.000001
    7        9.468696  -0.000001
    8       11.991576   0.000000
    9       11.991748   0.000000
   10       14.086095   0.000000

  0.6666667E-01  0.3777220E-15  0.3742002E-15  0.1777778E-02
    1       -5.589859   1.000000
    2        4.995695   1.000000
    3        5.218527   1.000000
    4        6.043010   1.000000
    5        6.451030   1.000000
    6        9.448736  -0.000004
    7        9.681705  -0.000000
    8       11.575675  -0.000000
    9       11.610353  -0.000000
   10       14.523821   0.000000

  0.1333333E+00  0.3824091E-15  0.3742002E-15  0.1777778E-02
    1       -5.334479   1.000000
    2        4.369405   1.000000
    3        5.202386   1.000000
    4        6.111170   1.000000
    5        6.171739   1.000000
    6        9.392746  -0.000119
    7       10.217365  -0.000000
    8       10.882668  -0.000000
    9       11.008364  -0.000000
   10       15.189266   0.000000

  0.2000000E+00  0.3806431E-15  0.3742002E-15  0.1777778E-02
    1       -4.916818   1.000000
    2        3.471649   1.000000
    3        5.159833   1.000000
    4        5.868344   1.000000
    5        6.162802   1.000000
    6        9.311551  -0.004876
    7       10.355447  -0.000000
    8       10.543489  -0.000000
    9       10.902603  -0.000000
   10       15.688015   0.000000

  0.2666667E+00  0.3859547E-15  0.3742002E-15  0.1777778E-02
    1       -4.347969   1.000000
    2        2.426608   1.000000
    3        5.084990   1.000000
    4        5.609094   1.000000
    5        6.123754   1.000000
    6        9.220082  -0.035454
    7       10.146872  -0.000000
    8       10.271136  -0.000000
    9       11.588409  -0.000000
   10       16.075131   0.000000

  0.3333333E+00  0.3635107E-15  0.3742002E-15  0.1777778E-02
    1       -3.642020   1.000000
    2        1.320821   1.000000
    3        4.990681   1.000000
    4        5.417340   1.000000
    5        5.987173   1.000000
    6        9.134321   0.207906
    7       10.160720  -0.000000
    8       10.250144  -0.000000
    9       12.125519   0.000000
   10       15.701128   0.000000

  0.4000000E+00  0.3993534E-15  0.3742002E-15  0.1777778E-02
    1       -2.815231   1.000000
    2        0.210894   1.000000
    3        4.904305   1.000000
    4        5.295218   1.000000
    5        5.827911   1.000000
    6        9.068414   0.732054
    7       10.146268  -0.000000
    8       10.513831  -0.000000
    9       12.404998   0.000000
   10       15.537795   0.000000

  0.4666667E+00  0.3562316E-15  0.3742002E-15  0.1777778E-02
    1       -1.887358   1.000000
    2       -0.862870   1.000000
    3        4.853162   1.000000
    4        5.236827   1.000000
    5        5.727088   1.000000
    6        9.032739   0.938633
    7       10.159979  -0.000000
    8       10.726921  -0.000000
    9       12.480732   0.000000
   10       15.598950   0.000000

  0.6666667E-01  0.6666667E-01  0.3742002E-15  0.1777778E-02
    1       -5.419175   1.000000
    2        4.597188   1.000000
    3        5.162501   1.000000
    4        6.109380   1.000000
    5        6.254308   1.000000
    6        9.400407  -0.000078
    7       10.062207  -0.000000
    8       11.090389  -0.000000
    9       11.132583  -0.000000
   10       15.172763   0.000000

  0.1333333E+00  0.6666667E-01  0.3742002E-15  0.3555556E-02
    1       -5.082595   1.000000
    2        3.883338   1.000000
    3        5.012132   1.000000
    4        5.978853   1.000000
    5        6.247292   1.000000
    6        9.303050  -0.006566
    7       10.505430  -0.000000
    8       10.684129  -0.000000
    9       10.689104  -0.000000
   10       15.761838   0.000000

  0.2000000E+00  0.6666667E-01  0.3742002E-15  0.3555556E-02
    1       -4.589208   1.000000
    2        2.949347   1.000000
    3        4.803442   1.000000
    4        5.719271   1.000000
    5        6.383476   1.000000
    6        9.173919   0.018548
    7       10.079508  -0.000000
    8       10.434480  -0.000000
    9       11.408431  -0.000000
   10       16.202323   0.000000

  0.2666667E+00  0.6666667E-01  0.3742002E-15  0.3555556E-02
    1       -3.951505   1.000000
    2        1.896834   1.000000
    3        4.574619   1.000000
    4        5.516902   1.000000
    5        6.440244   1.000000
    6        9.033423   0.935838
    7        9.909363  -0.000000
    8       10.386932  -0.000000
    9       12.075848   0.000000
   10       15.856565   0.000000

  0.3333333E+00  0.6666667E-01  0.3742002E-15  0.3555556E-02
    1       -3.184644   1.000000
    2        0.800858   1.000000
    3        4.370457   1.000000
    4        5.381187   1.000000
    5        6.407544   1.000000
    6        8.905272   1.010316
    7        9.949249  -0.000000
    8       10.483508  -0.000000
    9       12.540566   0.000000
   10       15.541235   0.000000

  0.4000000E+00  0.6666667E-01  0.3742002E-15  0.3555556E-02
    1       -2.306026   1.000000
    2       -0.286606   1.000000
    3        4.230942   1.000000
    4        5.306365   1.000000
    5        6.346005   1.000000
    6        8.814443   1.000238
    7       10.052456  -0.000000
    8       10.630079  -0.000000
    9       12.740954   0.000000
   10       15.512324   0.000000

  0.4666667E+00  0.6666667E-01  0.3742002E-15  0.1777778E-02
    1       -1.385966   1.000000
    2       -1.278023   1.000000
    3        4.181569   1.000000
    4        5.282872   1.000000
    5        6.317889   1.000000
    6        8.781437   1.000038
    7       10.099188  -0.000000
    8       10.701617  -0.000000
    9       12.781473   0.000000
   10       15.539293   0.000000

  0.1333333E+00  0.1333333E+00  0.3742002E-15  0.1777778E-02
    1       -4.670162   1.000000
    2        3.229947   1.000000
    3        4.544015   1.000000
    4        5.769704   1.000000
    5        6.538713   1.000000
    6        9.114817   0.352659
    7       10.054114  -0.000000
    8       10.501000  -0.000000
    9       11.379971  -0.000000
   10       16.577798   0.000000

  0.2000000E+00  0.1333333E+00  0.3742002E-15  0.3555556E-02
    1       -4.107544   1.000000
    2        2.398489   1.000000
    3        4.032427   1.000000
    4        5.603851   1.000000
    5        6.850489   1.000000
    6        8.865659   1.002548
    7        9.701941  -0.000000
    8       10.486989  -0.000000
    9       12.148603   0.000000
   10       15.960464   0.000000

  0.2666667E+00  0.1333333E+00  0.3742002E-15  0.3555556E-02
    1       -3.408311   1.000000
    2        1.420967   1.000000
    3        3.618644   1.000000
    4        5.501422   1.000000
    5        7.068648   1.000000
    6        8.600837   1.000000
    7        9.582664  -0.000000
    8       10.544955  -0.000000
    9       12.841565   0.000000
   10       15.541966   0.000000

  0.3333333E+00  0.1333333E+00  0.3742002E-15  0.3555556E-02
    1       -2.588739   1.000000
    2        0.375579   1.000000
    3        3.339285   1.000000
    4        5.455003   1.000000
    5        7.148704   1.000000
    6        8.374069   1.000000
    7        9.703733  -0.000000
    8       10.576337  -0.000000
    9       13.289052   0.000000
   10       15.411654   0.000000

  0.4000000E+00  0.1333333E+00  0.3742002E-15  0.3555556E-02
    1       -1.668036   1.000000
    2       -0.669283   1.000000
    3        3.199101   1.000000
    4        5.442004   1.000000
    5        7.153584   1.000000
    6        8.241361   1.000000
    7        9.894523  -0.000000
    8       10.544559  -0.000000
    9       13.453046   0.000000
   10       15.469297   0.000000

  0.2000000E+00  0.2000000E+00  0.3742002E-15  0.1777778E-02
    1       -3.483177   1.000000
    2        1.784552   1.000000
    3        3.203935   1.000000
    4        5.560238   1.000000
    5        7.354766   1.000000
    6        8.460175   1.000000
    7        9.392069  -0.000123
    8       10.571620  -0.000000
    9       12.981531   0.000000
   10       15.540239   0.000000

  0.2666667E+00  0.2000000E+00  0.3742002E-15  0.3555556E-02
    1       -2.730954   1.000000
    2        1.002862   1.000000
    3        2.582373   1.000000
    4        5.590971   1.000000
    5        7.752067   1.000000
    6        8.044796   1.000000
    7        9.297388  -0.007921
    8       10.568212  -0.000000
    9       13.728066   0.000000
   10       15.300144   0.000000

  0.3333333E+00  0.2000000E+00  0.3742002E-15  0.3555556E-02
    1       -1.870276   1.000000
    2        0.060844   1.000000
    3        2.251001   1.000000
    4        5.660917   1.000000
    5        7.718274   1.000000
    6        7.923984   1.000000
    7        9.495274  -0.000000
    8       10.418575  -0.000000
    9       14.156326   0.000000
   10       15.317268   0.000000

  0.4000000E+00  0.2000000E+00  0.3742002E-15  0.1777778E-02
    1       -0.978363   1.000000
    2       -0.871061   1.000000
    3        2.150187   1.000000
    4        5.699446   1.000000
    5        7.589929   1.000000
    6        7.952741   1.000000
    7        9.705648  -0.000000
    8       10.259093  -0.000000
    9       14.253967   0.000000
   10       15.403528   0.000000

  0.2666667E+00  0.2666667E+00  0.3742002E-15  0.1777778E-02
    1       -1.938148   1.000000
    2        0.554989   1.000000
    3        1.681399   1.000000
    4        5.782586   1.000000
    5        7.485218   1.000000
    6        8.384307   1.000000
    7        9.146459   0.133454
    8       10.380056  -0.000000
    9       14.531638   0.000000
   10       15.165014   0.000000

  0.3333333E+00  0.2666667E+00  0.3742002E-15  0.3555556E-02
    1       -1.066768   1.000000
    2       -0.143741   1.000000
    3        1.221205   1.000000
    4        6.004667   1.000000
    5        7.063237   1.000000
    6        8.682334   1.000000
    7        9.357118  -0.000732
    8       10.014361  -0.000000
    9       14.891752   0.000000
   10       15.259258   0.000000

  0.3333333E+00  0.3333333E+00  0.3742002E-15  0.5925926E-03
    1       -0.370342   1.000000
    2       -0.370341   1.000000
    3        0.604794   1.000000
    4        6.479001   1.000000
    5        6.479002   1.000000
    6        9.292328  -0.009299
    7        9.292329  -0.009299
    8        9.533708  -0.000000
    9       15.216922   0.000000
   10       15.216922   0.000000

  0.3742002E-15  0.3742002E-15  0.6666667E-01  0.5925926E-03
    1       -5.610603   1.000000
    2        5.275477   1.000000
    3        5.275478   1.000000
    4        5.381623   1.000000
    5        7.106456   1.000000
    6        9.316357  -0.004088
    7        9.316357  -0.004088
    8       11.883515   0.000000
    9       11.883524   0.000000
   10       14.322517   0.000000

  0.6666667E-01  0.3777220E-15  0.6666667E-01  0.3555556E-02
    1       -5.525344   1.000000
    2        5.044287   1.000000
    3        5.266471   1.000000
    4        5.392925   1.000000
    5        6.978396   1.000000
    6        9.288204  -0.010543
    7        9.533216  -0.000000
    8       11.559278  -0.000000
    9       11.595162  -0.000000
   10       14.721805   0.000000

  0.1333333E+00  0.3824091E-15  0.6666667E-01  0.3555556E-02
    1       -5.272051   1.000000
    2        4.406451   1.000000
    3        5.232672   1.000000
    4        5.409625   1.000000
    5        6.729551   1.000000
    6        9.219556  -0.035458
    7        9.995371  -0.000000
    8       11.037471  -0.000000
    9       11.104953  -0.000000
   10       15.246775   0.000000

  0.2000000E+00  0.3806431E-15  0.6666667E-01  0.3555556E-02
    1       -4.857900   1.000000
    2        3.496208   1.000000
    3        5.161420   1.000000
    4        5.395758   1.000000
    5        6.494240   1.000000
    6        9.151708   0.105659
    7       10.168124  -0.000000
    8       10.703322  -0.000000
    9       11.055676  -0.000000
   10       15.673020   0.000000

  0.2666667E+00  0.3859547E-15  0.6666667E-01  0.3555556E-02
    1       -4.293962   1.000000
    2        2.443093   1.000000
    3        5.052112   1.000000
    4        5.342897   1.000000
    5        6.272862   1.000000
    6        9.123658   0.283809
    7       10.085917  -0.000000
    8       10.431383  -0.000000
    9       11.596537  -0.000000
   10       15.781901   0.000000

  0.3333333E+00  0.3635107E-15  0.6666667E-01  0.3555556E-02
    1       -3.594179   1.000000
    2        1.335150   1.000000
    3        4.925846   1.000000
    4        5.279314   1.000000
    5        6.045649   1.000000
    6        9.138179   0.182764
    7       10.197265  -0.000000
    8       10.271123  -0.000000
    9       12.082181   0.000000
   10       15.408442   0.000000

  0.4000000E+00  0.3993534E-15  0.6666667E-01  0.3555556E-02
    1       -2.774348   1.000000
    2        0.227643   1.000000
    3        4.816332   1.000000
    4        5.232001   1.000000
    5        5.846861   1.000000
    6        9.166880   0.040902
    7       10.196316  -0.000000
    8       10.434250  -0.000000
    9       12.364701   0.000000
   10       15.135927   0.000000

  0.4666667E+00  0.3562316E-15  0.6666667E-01  0.3555556E-02
    1       -1.852016   1.000000
    2       -0.842461   1.000000
    3        4.753398   1.000000
    4        5.209388   1.000000
    5        5.730598   1.000000
    6        9.184791  -0.007189
    7       10.173505  -0.000000
    8       10.617905  -0.000000
    9       12.474194   0.000000
   10       15.012782   0.000000

  0.6666667E-01  0.6666667E-01  0.6666667E-01  0.3555556E-02
    1       -5.356060   1.000000
    2        4.638435   1.000000
    3        5.195778   1.000000
    4        5.414293   1.000000
    5        6.815572   1.000000
    6        9.212862  -0.034698
    7        9.895867  -0.000000
    8       11.154563  -0.000000
    9       11.230152  -0.000000
   10       15.245680   0.000000

  0.1333333E+00  0.6666667E-01  0.6666667E-01  0.7111111E-02
    1       -5.022286   1.000000
    2        3.914062   1.000000
    3        5.025605   1.000000
    4        5.417611   1.000000
    5        6.679663   1.000000
    6        9.077677   0.660998
    7       10.294479  -0.000000
    8       10.722225  -0.000000
    9       11.001610  -0.000000
   10       15.786534   0.000000

  0.2000000E+00  0.6666667E-01  0.6666667E-01  0.7111111E-02
    1       -4.533133   1.000000
    2        2.969822   1.000000
    3        4.794103   1.000000
    4        5.380813   1.000000
    5        6.608847   1.000000
    6        8.955753   1.031269
    7       10.190323  -0.000000
    8       10.487383  -0.000000
    9       11.431852  -0.000000
   10       16.021574   0.000000

  0.2666667E+00  0.6666667E-01  0.6666667E-01  0.7111111E-02
    1       -3.901052   1.000000
    2        1.911760   1.000000
    3        4.547682   1.000000
    4        5.327083   1.000000
    5        6.521679   1.000000
    6        8.910669   1.012084
    7       10.080433  -0.000000
    8       10.390204  -0.000000
    9       12.023071   0.000000
   10       15.616791   0.000000

  0.3333333E+00  0.6666667E-01  0.6666667E-01  0.7111111E-02
    1       -3.140952   1.000000
    2        0.815882   1.000000
    3        4.334245   1.000000
    4        5.284256   1.000000
    5        6.391462   1.000000
    6        8.931568   1.020531
    7       10.066655  -0.000000
    8       10.445297  -0.000000
    9       12.463049   0.000000
   10       15.248480   0.000000

  0.4000000E+00  0.6666667E-01  0.6666667E-01  0.7111111E-02
    1       -2.269514   1.000000
    2       -0.267646   1.000000
    3        4.191020   1.000000
    4        5.262200   1.000000
    5        6.273254   1.000000
    6        8.955134   1.031031
    7       10.095374  -0.000000
    8       10.570698  -0.000000
    9       12.686794   0.000000
   10       15.069985   0.000000

  0.4666667E+00  0.6666667E-01  0.6666667E-01  0.3555556E-02
    1       -1.322581   1.000000
    2       -1.286855   1.000000
    3        4.140770   1.000000
    4        5.256339   1.000000
    5        6.226417   1.000000
    6        8.961270   1.033181
    7       10.113973  -0.000000
    8       10.633098  -0.000000
    9       12.748791   0.000000
   10       15.018125   0.000000

  0.1333333E+00  0.1333333E+00  0.6666667E-01  0.3555556E-02
    1       -4.613415   1.000000
    2        3.255001   1.000000
    3        4.538616   1.000000
    4        5.398256   1.000000
    5        6.829617   1.000000
    6        8.801578   1.000120
    7       10.324616  -0.000000
    8       10.443962  -0.000000
    9       11.400329  -0.000000
   10       16.393274   0.000000

  0.2000000E+00  0.1333333E+00  0.6666667E-01  0.7111111E-02
    1       -4.055824   1.000000
    2        2.416611   1.000000
    3        4.017488   1.000000
    4        5.371367   1.000000
    5        7.031471   1.000000
    6        8.545548   1.000000
    7       10.024141  -0.000000
    8       10.475642  -0.000000
    9       12.073843   0.000000
   10       15.817463   0.000000

  0.2666667E+00  0.1333333E+00  0.6666667E-01  0.7111111E-02
    1       -3.363010   1.000000
    2        1.435110   1.000000
    3        3.605322   1.000000
    4        5.363361   1.000000
    5        7.092744   1.000000
    6        8.457725   1.000000
    7        9.849600  -0.000000
    8       10.529276  -0.000000
    9       12.716149   0.000000
   10       15.371978   0.000000

  0.3333333E+00  0.1333333E+00  0.6666667E-01  0.7111111E-02
    1       -2.551039   1.000000
    2        0.391569   1.000000
    3        3.329760   1.000000
    4        5.379265   1.000000
    5        6.994344   1.000000
    6        8.504862   1.000000
    7        9.841857  -0.000000
    8       10.556732  -0.000000
    9       13.165623   0.000000
   10       15.135480   0.000000

  0.4000000E+00  0.1333333E+00  0.6666667E-01  0.7111111E-02
    1       -1.638769   1.000000
    2       -0.647074   1.000000
    3        3.191903   1.000000
    4        5.400041   1.000000
    5        6.893605   1.000000
    6        8.537498   1.000000
    7        9.940066  -0.000000
    8       10.532643  -0.000000
    9       13.367070   0.000000
   10       15.065028   0.000000

  0.2000000E+00  0.2000000E+00  0.6666667E-01  0.3555556E-02
    1       -3.437359   1.000000
    2        1.799342   1.000000
    3        3.195185   1.000000
    4        5.401266   1.000000
    5        7.520926   1.000000
    6        8.098138   1.000000
    7        9.753372  -0.000000
    8       10.562039  -0.000000
    9       12.834314   0.000000
   10       15.431962   0.000000

  0.2666667E+00  0.2000000E+00  0.6666667E-01  0.7111111E-02
    1       -2.692620   1.000000
    2        1.014822   1.000000
    3        2.586327   1.000000
    4        5.482414   1.000000
    5        7.555903   1.000000
    6        8.098391   1.000000
    7        9.584389  -0.000000
    8       10.560188  -0.000000
    9       13.539330   0.000000
   10       15.167707   0.000000

  0.3333333E+00  0.2000000E+00  0.6666667E-01  0.7111111E-02
    1       -1.841228   1.000000
    2        0.077146   1.000000
    3        2.262871   1.000000
    4        5.588335   1.000000
    5        7.240637   1.000000
    6        8.375301   1.000000
    7        9.632302  -0.000000
    8       10.424150  -0.000000
    9       14.004477   0.000000
   10       15.075299   0.000000

  0.4000000E+00  0.2000000E+00  0.6666667E-01  0.3555556E-02
    1       -0.983911   1.000000
    2       -0.821214   1.000000
    3        2.164262   1.000000
    4        5.642900   1.000000
    5        7.108442   1.000000
    6        8.452859   1.000000
    7        9.764896  -0.000000
    8       10.286371  -0.000000
    9       14.145307   0.000000
   10       15.082595   0.000000

  0.2666667E+00  0.2666667E+00  0.6666667E-01  0.3555556E-02
    1       -1.909001   1.000000
    2        0.562008   1.000000
    3        1.706087   1.000000
    4        5.687662   1.000000
    5        7.240629   1.000000
    6        8.503328   1.000000
    7        9.408578  -0.000048
    8       10.387228  -0.000000
    9       14.301810   0.000000
   10       15.047106   0.000000

  0.3333333E+00  0.2666667E+00  0.6666667E-01  0.7111111E-02
    1       -1.051336   1.000000
    2       -0.130380   1.000000
    3        1.256774   1.000000
    4        5.917206   1.000000
    5        6.854369   1.000000
    6        8.870229   1.003055
    7        9.489211  -0.000000
    8       10.050030  -0.000000
    9       14.731618   0.000000
   10       15.050596   0.000000

  0.3333333E+00  0.3333333E+00  0.6666667E-01  0.1185185E-02
    1       -0.370202   1.000000
    2       -0.370200   1.000000
    3        0.671205   1.000000
    4        6.353723   1.000000
    5        6.353724   1.000000
    6        9.433699  -0.000010
    7        9.433699  -0.000010
    8        9.566287  -0.000000
    9       15.039828   0.000000
   10       15.039828   0.000000

  0.3742002E-15  0.3742002E-15  0.1333333E+00  0.5925926E-03
    1       -5.418204   1.000000
    2        4.450842   1.000000
    3        5.436020   1.000000
    4        5.436021   1.000000
    5        7.755669   1.000000
    6        8.943775   1.026147
    7        8.943776   1.026147
    8       11.571920  -0.000000
    9       11.571921  -0.000000
   10       14.954787   0.000000

  0.6666667E-01  0.3777220E-15  0.1333333E+00  0.3555556E-02
    1       -5.335086   1.000000
    2        4.480981   1.000000
    3        5.188099   1.000000
    4        5.407913   1.000000
    5        7.534125   1.000000
    6        8.910500   1.012026
    7        9.214749  -0.035075
    8       11.411525  -0.000000
    9       11.460227  -0.000000
   10       15.174686   0.000000

  0.1333333E+00  0.3824091E-15  0.1333333E+00  0.3555556E-02
    1       -5.088230   1.000000
    2        4.487707   1.000000
    3        4.588898   1.000000
    4        5.317408   1.000000
    5        7.168391   1.000000
    6        8.854654   1.001612
    7        9.644172  -0.000000
    8       11.172772  -0.000000
    9       11.226644  -0.000000
   10       15.450165   0.000000

  0.2000000E+00  0.3806431E-15  0.1333333E+00  0.3555556E-02
    1       -4.684945   1.000000
    2        3.560147   1.000000
    3        4.689899   1.000000
    4        5.160162   1.000000
    5        6.815210   1.000000
    6        8.860233   1.002040
    7        9.848697  -0.000000
    8       10.984043  -0.000000
    9       11.266077  -0.000000
   10       15.582881   0.000000

  0.2666667E+00  0.3859547E-15  0.1333333E+00  0.3555556E-02
    1       -4.136274   1.000000
    2        2.488296   1.000000
    3        4.822031   1.000000
    4        4.956940   1.000000
    5        6.468839   1.000000
    6        8.971413   1.035305
    7        9.903209  -0.000000
    8       10.760421  -0.000000
    9       11.660235  -0.000000
   10       15.297374   0.000000

  0.3333333E+00  0.3635107E-15  0.1333333E+00  0.3555556E-02
    1       -3.455842   1.000000
    2        1.378236   1.000000
    3        4.751572   1.000000
    4        4.949838   1.000000
    5        6.141805   1.000000
    6        9.170418   0.029079
    7       10.031981  -0.000000
    8       10.554284  -0.000000
    9       12.054137   0.000000
   10       14.851868   0.000000

  0.4000000E+00  0.3993534E-15  0.1333333E+00  0.3555556E-02
    1       -2.658836   1.000000
    2        0.281646   1.000000
    3        4.588738   1.000000
    4        5.059707   1.000000
    5        5.875713   1.000000
    6        9.402399  -0.000069
    7       10.217980  -0.000000
    8       10.365212  -0.000000
    9       12.328500   0.000000
   10       14.488801   0.000000

  0.4666667E+00  0.3562316E-15  0.1333333E+00  0.3555556E-02
    1       -1.763344   1.000000
    2       -0.766761   1.000000
    3        4.499747   1.000000
    4        5.131910   1.000000
    5        5.718789   1.000000
    6        9.584842  -0.000000
    7       10.220852  -0.000000
    8       10.347872  -0.000000
    9       12.482960   0.000000
   10       14.267848   0.000000

  0.6666667E-01  0.6666667E-01  0.1333333E+00  0.3555556E-02
    1       -5.170094   1.000000
    2        4.536756   1.000000
    3        4.758957   1.000000
    4        5.299540   1.000000
    5        7.305779   1.000000
    6        8.801217   1.000117
    7        9.591949  -0.000000
    8       11.178954  -0.000000
    9       11.321279  -0.000000
   10       15.522450   0.000000

  0.1333333E+00  0.6666667E-01  0.1333333E+00  0.7111111E-02
    1       -4.845018   1.000000
    2        3.999310   1.000000
    3        4.635200   1.000000
    4        5.060716   1.000000
    5        7.109577   1.000000
    6        8.647616   1.000000
    7        9.967681  -0.000000
    8       10.946196  -0.000000
    9       11.251848  -0.000000
   10       15.857074   0.000000

  0.2000000E+00  0.6666667E-01  0.1333333E+00  0.7111111E-02
    1       -4.368983   1.000000
    2        3.025496   1.000000
    3        4.706438   1.000000
    4        4.818499   1.000000
    5        6.900327   1.000000
    6        8.617764   1.000000
    7       10.082763  -0.000000
    8       10.781984  -0.000000
    9       11.518098  -0.000000
   10       15.654636   0.000000

  0.2666667E+00  0.6666667E-01  0.1333333E+00  0.7111111E-02
    1       -3.754390   1.000000
    2        1.954665   1.000000
    3        4.460114   1.000000
    4        4.908933   1.000000
    5        6.620332   1.000000
    6        8.768512   1.000017
    7       10.146442  -0.000000
    8       10.602427  -0.000000
    9       11.965863   0.000000
   10       15.146572   0.000000

  0.3333333E+00  0.6666667E-01  0.1333333E+00  0.7111111E-02
    1       -3.015739   1.000000
    2        0.862483   1.000000
    3        4.225918   1.000000
    4        5.033821   1.000000
    5        6.327163   1.000000
    6        9.028794   0.953827
    7       10.272334  -0.000000
    8       10.419513  -0.000000
    9       12.347764   0.000000
   10       14.701013   0.000000

  0.4000000E+00  0.6666667E-01  0.1333333E+00  0.7111111E-02
    1       -2.169395   1.000000
    2       -0.204703   1.000000
    3        4.072365   1.000000
    4        5.138003   1.000000
    5        6.101611   1.000000
    6        9.285736  -0.011340
    7       10.237011  -0.000000
    8       10.418212  -0.000000
    9       12.598717   0.000000
   10       14.394203   0.000000

  0.4666667E+00  0.6666667E-01  0.1333333E+00  0.3555556E-02
    1       -1.312043   1.000000
    2       -1.136915   1.000000
    3        4.019118   1.000000
    4        5.182645   1.000000
    5        6.013694   1.000000
    6        9.404563  -0.000061
    7       10.155815  -0.000000
    8       10.471997  -0.000000
    9       12.695175   0.000000
   10       14.272793   0.000000

  0.1333333E+00  0.1333333E+00  0.1333333E+00  0.3555556E-02
    1       -4.447146   1.000000
    2        3.326958   1.000000
    3        4.474196   1.000000
    4        4.781630   1.000000
    5        7.277039   1.000000
    6        8.271047   1.000000
    7       10.277708  -0.000000
    8       10.702752  -0.000000
    9       11.485922  -0.000000
   10       16.035902   0.000000

  0.2000000E+00  0.1333333E+00  0.1333333E+00  0.7111111E-02
    1       -3.905122   1.000000
    2        2.468074   1.000000
    3        3.960189   1.000000
    4        4.893211   1.000000
    5        7.311913   1.000000
    6        8.125761   1.000000
    7       10.365978  -0.000000
    8       10.548247  -0.000000
    9       11.956604   0.000000
   10       15.504916   0.000000

  0.2666667E+00  0.1333333E+00  0.1333333E+00  0.7111111E-02
    1       -3.232336   1.000000
    2        1.476806   1.000000
    3        3.562630   1.000000
    4        5.033906   1.000000
    5        6.996468   1.000000
    6        8.417354   1.000000
    7       10.322157  -0.000000
    8       10.483461  -0.000000
    9       12.480029   0.000000
   10       15.003586   0.000000

  0.3333333E+00  0.1333333E+00  0.1333333E+00  0.7111111E-02
    1       -2.444755   1.000000
    2        0.441730   1.000000
    3        3.299355   1.000000
    4        5.178007   1.000000
    5        6.654124   1.000000
    6        8.802423   1.000125
    7       10.188049  -0.000000
    8       10.500502  -0.000000
    9       12.911480   0.000000
   10       14.626866   0.000000

  0.4000000E+00  0.1333333E+00  0.1333333E+00  0.7111111E-02
    1       -1.565906   1.000000
    2       -0.569690   1.000000
    3        3.167693   1.000000
    4        5.284556   1.000000
    5        6.437139   1.000000
    6        9.078193   0.656892
    7       10.071190  -0.000000
    8       10.513838  -0.000000
    9       13.175534   0.000000
   10       14.398134   0.000000

  0.2000000E+00  0.2000000E+00  0.1333333E+00  0.3555556E-02
    1       -3.304912   1.000000
    2        1.841556   1.000000
    3        3.166779   1.000000
    4        5.037022   1.000000
    5        7.518335   1.000000
    6        7.908086   1.000000
    7       10.316087  -0.000000
    8       10.523938  -0.000000
    9       12.543903   0.000000
   10       15.172332   0.000000

  0.2666667E+00  0.2000000E+00  0.1333333E+00  0.7111111E-02
    1       -2.583447   1.000000
    2        1.049812   1.000000
    3        2.598015   1.000000
    4        5.213543   1.000000
    5        7.064211   1.000000
    6        8.410197   1.000000
    7       10.127468  -0.000000
    8       10.534934  -0.000000
    9       13.147419   0.000000
   10       14.860132   0.000000
