   49   49   85    1
  0.2411350E+02  0.8645320E-09  0.6085000E-09  0.2593596E-08  0.5000000E-15
   1.0000000000000000E-004
  CAR 
 Name                                    
    189    149    120

  0.3742002E-15  0.3742002E-15  0.3742002E-15  0.3367003E-02
    1      -14.072339   1.000000
    2      -12.685027   1.000000
    3      -12.585190   1.000000
    4      -12.034602   1.000000
    5      -11.611428   1.000000
    6      -11.274511   1.000000
    7      -11.266568   1.000000
    8      -11.225062   1.000000
    9      -11.086698   1.000000
   10      -10.803333   1.000000
   11      -10.798815   1.000000
   12      -10.437035   1.000000
   13      -10.259021   1.000000
   14      -10.245041   1.000000
   15       -9.859975   1.000000
   16       -9.839114   1.000000
   17       -9.253825   1.000000
   18       -9.001958   1.000000
   19       -8.954645   1.000000
   20       -8.641596   1.000000
   21       -8.622765   1.000000
   22       -8.483419   1.000000
   23       -8.289808   1.000000
   24       -8.193407   1.000000
   25       -8.121054   1.000000
   26       -8.086290   1.000000
   27       -7.470098   1.000000
   28       -7.397163   1.000000
   29       -6.726947   1.000000
   30       -6.674319   1.000000
   31       -6.572457   1.000000
   32       -6.377393   1.000000
   33       -6.181562   1.000000
   34       -6.096840   1.000000
   35       -5.783976   1.000000
   36       -5.674776   1.000000
   37       -5.650033   1.000000
   38       -5.626451   1.000000
   39       -5.372299   1.000000
   40       -5.360249   1.000000
   41       -5.270118   1.000000
   42       -5.201906   1.000000
   43       -5.123917   1.000000
   44       -5.009027   1.000000
   45       -4.968616   1.000000
   46       -4.909525   1.000000
   47       -4.764999   1.000000
   48       -4.746883   1.000000
   49       -4.704841   1.000000
   50       -4.672958   1.000000
   51       -4.630979   1.000000
   52       -4.531422   1.000000
   53       -4.506626   1.000000
   54       -4.336821   1.000000
   55       -4.302343   1.000000
   56       -4.202121   1.000000
   57       -4.181935   1.000000
   58       -4.132929   1.000000
   59       -4.058017   1.000000
   60       -3.953121   1.000000
   61       -3.702821   1.000000
   62       -3.599702   1.000000
   63       -3.567290   1.000000
   64       -3.537537   1.000000
   65       -3.503194   1.000000
   66       -3.478165   1.000000
   67       -3.420699   1.000000
   68       -3.380778   1.000000
   69       -3.347187   1.000000
   70       -3.227376   1.000000
   71       -3.203309   1.000000
   72       -2.845527   1.000000
   73       -2.746816   1.000000
   74       -2.623654   1.000000
   75       -2.528760   1.000000
   76       -2.451754   1.000000
   77       -2.392869   1.000000
   78       -2.293457   1.000000
   79       -2.223326   1.000000
   80       -2.104149   1.000000
   81       -1.886044   1.000000
   82       -1.678010   1.000000
   83       -1.531009   1.000000
   84       -1.303662   1.000000
   85       -1.246797   1.000000
   86       -1.139233   1.000000
   87       -1.071322   1.000000
   88       -1.019453   1.000000
   89       -0.852735   1.000000
   90       -0.486886   1.000000
   91       -0.359907   1.000094
   92       -0.154382   1.018248
   93       -0.086450   0.715265
   94       -0.028623   0.248280
   95        0.086750  -0.029066
   96        0.107645  -0.019577
   97        0.127260  -0.011795
   98        0.368639  -0.000000
   99        0.439723  -0.000000
  100        0.500963  -0.000000
  101        0.568103  -0.000000
  102        0.672018  -0.000000
  103        0.680855  -0.000000
  104        0.707238  -0.000000
  105        0.793396  -0.000000
  106        0.998283  -0.000000
  107        1.143229  -0.000000
  108        1.188342  -0.000000
  109        1.215853  -0.000000
  110        1.312443  -0.000000
  111        1.320763  -0.000000
  112        1.351888  -0.000000
  113        1.408595  -0.000000
  114        1.451909  -0.000000
  115        1.544806  -0.000000
  116        1.603593  -0.000000
  117        1.621842  -0.000000
  118        1.763994  -0.000000
  119        1.777967  -0.000000
  120        1.823899  -0.000000

  0.1111111E+00  0.3729374E-15  0.3860503E-15  0.6734007E-02
    1      -14.045366   1.000000
    2      -12.701158   1.000000
    3      -12.658388   1.000000
    4      -11.977339   1.000000
    5      -11.597431   1.000000
    6      -11.274320   1.000000
    7      -11.257797   1.000000
    8      -11.211322   1.000000
    9      -11.126861   1.000000
   10      -10.798933   1.000000
   11      -10.794331   1.000000
   12      -10.447905   1.000000
   13      -10.256521   1.000000
   14      -10.241358   1.000000
   15       -9.849781   1.000000
   16       -9.826700   1.000000
   17       -9.244402   1.000000
   18       -8.995147   1.000000
   19       -8.956267   1.000000
   20       -8.646549   1.000000
   21       -8.634369   1.000000
   22       -8.515941   1.000000
   23       -8.346193   1.000000
   24       -8.183129   1.000000
   25       -8.125767   1.000000
   26       -8.100598   1.000000
   27       -7.562028   1.000000
   28       -7.392767   1.000000
   29       -6.694286   1.000000
   30       -6.633500   1.000000
   31       -6.515914   1.000000
   32       -6.327913   1.000000
   33       -6.175253   1.000000
   34       -6.104117   1.000000
   35       -5.778486   1.000000
   36       -5.730559   1.000000
   37       -5.596330   1.000000
   38       -5.559932   1.000000
   39       -5.469747   1.000000
   40       -5.342196   1.000000
   41       -5.242246   1.000000
   42       -5.185988   1.000000
   43       -5.154071   1.000000
   44       -4.963005   1.000000
   45       -4.920755   1.000000
   46       -4.882767   1.000000
   47       -4.804805   1.000000
   48       -4.745514   1.000000
   49       -4.688286   1.000000
   50       -4.649658   1.000000
   51       -4.582859   1.000000
   52       -4.517795   1.000000
   53       -4.485847   1.000000
   54       -4.375301   1.000000
   55       -4.298989   1.000000
   56       -4.216349   1.000000
   57       -4.199050   1.000000
   58       -4.142230   1.000000
   59       -4.060351   1.000000
   60       -3.932293   1.000000
   61       -3.746851   1.000000
   62       -3.606270   1.000000
   63       -3.565716   1.000000
   64       -3.521033   1.000000
   65       -3.491243   1.000000
   66       -3.477396   1.000000
   67       -3.398777   1.000000
   68       -3.377335   1.000000
   69       -3.327555   1.000000
   70       -3.264077   1.000000
   71       -3.207968   1.000000
   72       -2.909713   1.000000
   73       -2.743878   1.000000
   74       -2.621172   1.000000
   75       -2.537265   1.000000
   76       -2.495034   1.000000
   77       -2.369208   1.000000
   78       -2.351137   1.000000
   79       -2.251787   1.000000
   80       -2.125802   1.000000
   81       -1.782724   1.000000
   82       -1.726619   1.000000
   83       -1.539627   1.000000
   84       -1.347457   1.000000
   85       -1.221679   1.000000
   86       -1.118749   1.000000
   87       -1.060904   1.000000
   88       -0.926188   1.000000
   89       -0.871646   1.000000
   90       -0.554065   1.000000
   91       -0.414687   1.000003
   92       -0.137350   0.982907
   93       -0.040277   0.336506
   94       -0.001578   0.087116
   95        0.050438  -0.032851
   96        0.081817  -0.031083
   97        0.127415  -0.011743
   98        0.399957  -0.000000
   99        0.437573  -0.000000
  100        0.481124  -0.000000
  101        0.596096  -0.000000
  102        0.683875  -0.000000
  103        0.701133  -0.000000
  104        0.731131  -0.000000
  105        0.811347  -0.000000
  106        1.010166  -0.000000
  107        1.144300  -0.000000
  108        1.169676  -0.000000
  109        1.245278  -0.000000
  110        1.311575  -0.000000
  111        1.336427  -0.000000
  112        1.385992  -0.000000
  113        1.432730  -0.000000
  114        1.480019  -0.000000
  115        1.551340  -0.000000
  116        1.591227  -0.000000
  117        1.605644  -0.000000
  118        1.767525  -0.000000
  119        1.779674  -0.000000
  120        1.816464  -0.000000

  0.2222222E+00  0.3922785E-15  0.3630220E-15  0.6734007E-02
    1      -13.965220   1.000000
    2      -12.934473   1.000000
    3      -12.587158   1.000000
    4      -11.929385   1.000000
    5      -11.557987   1.000000
    6      -11.288501   1.000000
    7      -11.239885   1.000000
    8      -11.200856   1.000000
    9      -11.144002   1.000000
   10      -10.785853   1.000000
   11      -10.780832   1.000000
   12      -10.507643   1.000000
   13      -10.252110   1.000000
   14      -10.237321   1.000000
   15       -9.816679   1.000000
   16       -9.785796   1.000000
   17       -9.226338   1.000000
   18       -8.968373   1.000000
   19       -8.935270   1.000000
   20       -8.693110   1.000000
   21       -8.686772   1.000000
   22       -8.575427   1.000000
   23       -8.462640   1.000000
   24       -8.248647   1.000000
   25       -8.204181   1.000000
   26       -7.953754   1.000000
   27       -7.777937   1.000000
   28       -7.350187   1.000000
   29       -6.637503   1.000000
   30       -6.573055   1.000000
   31       -6.390066   1.000000
   32       -6.318007   1.000000
   33       -6.206516   1.000000
   34       -6.046950   1.000000
   35       -5.770048   1.000000
   36       -5.702042   1.000000
   37       -5.639504   1.000000
   38       -5.455729   1.000000
   39       -5.427015   1.000000
   40       -5.292994   1.000000
   41       -5.202846   1.000000
   42       -5.148594   1.000000
   43       -5.091028   1.000000
   44       -5.069522   1.000000
   45       -4.934252   1.000000
   46       -4.806191   1.000000
   47       -4.767596   1.000000
   48       -4.724250   1.000000
   49       -4.648185   1.000000
   50       -4.607530   1.000000
   51       -4.551807   1.000000
   52       -4.495526   1.000000
   53       -4.427391   1.000000
   54       -4.396811   1.000000
   55       -4.304289   1.000000
   56       -4.241046   1.000000
   57       -4.223477   1.000000
   58       -4.108597   1.000000
   59       -4.061990   1.000000
   60       -3.911735   1.000000
   61       -3.836011   1.000000
   62       -3.651442   1.000000
   63       -3.575479   1.000000
   64       -3.513601   1.000000
   65       -3.489188   1.000000
   66       -3.464597   1.000000
   67       -3.424536   1.000000
   68       -3.363624   1.000000
   69       -3.318540   1.000000
   70       -3.269817   1.000000
   71       -3.129470   1.000000
   72       -3.025216   1.000000
   73       -2.732578   1.000000
   74       -2.675246   1.000000
   75       -2.601884   1.000000
   76       -2.552794   1.000000
   77       -2.479258   1.000000
   78       -2.341453   1.000000
   79       -2.335348   1.000000
   80       -2.107143   1.000000
   81       -1.866027   1.000000
   82       -1.606793   1.000000
   83       -1.520982   1.000000
   84       -1.436363   1.000000
   85       -1.189137   1.000000
   86       -1.085437   1.000000
   87       -0.990694   1.000000
   88       -0.919997   1.000000
   89       -0.697759   1.000000
   90       -0.674941   1.000000
   91       -0.533960   1.000000
   92       -0.208295   1.028412
   93       -0.029777   0.256601
   94       -0.008341   0.120840
   95        0.043666  -0.028539
   96        0.117757  -0.015302
   97        0.290707  -0.000004
   98        0.331820  -0.000000
   99        0.421866  -0.000000
  100        0.447994  -0.000000
  101        0.605575  -0.000000
  102        0.751621  -0.000000
  103        0.762614  -0.000000
  104        0.794416  -0.000000
  105        0.869199  -0.000000
  106        1.076756  -0.000000
  107        1.103430  -0.000000
  108        1.194619  -0.000000
  109        1.294040  -0.000000
  110        1.327658  -0.000000
  111        1.343334  -0.000000
  112        1.444925  -0.000000
  113        1.469607  -0.000000
  114        1.508778  -0.000000
  115        1.568354  -0.000000
  116        1.599811  -0.000000
  117        1.621754  -0.000000
  118        1.760179  -0.000000
  119        1.771393  -0.000000
  120        1.794371  -0.000000

  0.3333333E+00  0.3713828E-15  0.3468587E-15  0.6734007E-02
    1      -13.834291   1.000000
    2      -13.192971   1.000000
    3      -12.471297   1.000000
    4      -11.996455   1.000000
    5      -11.502167   1.000000
    6      -11.316175   1.000000
    7      -11.222811   1.000000
    8      -11.207222   1.000000
    9      -11.057232   1.000000
   10      -10.767350   1.000000
   11      -10.761654   1.000000
   12      -10.626833   1.000000
   13      -10.252328   1.000000
   14      -10.243244   1.000000
   15       -9.760931   1.000000
   16       -9.716833   1.000000
   17       -9.219940   1.000000
   18       -8.971624   1.000000
   19       -8.869053   1.000000
   20       -8.777694   1.000000
   21       -8.758383   1.000000
   22       -8.598192   1.000000
   23       -8.548715   1.000000
   24       -8.323544   1.000000
   25       -8.302458   1.000000
   26       -8.040216   1.000000
   27       -7.709781   1.000000
   28       -7.244494   1.000000
   29       -6.689037   1.000000
   30       -6.561448   1.000000
   31       -6.518080   1.000000
   32       -6.355376   1.000000
   33       -6.035972   1.000000
   34       -5.922619   1.000000
   35       -5.781989   1.000000
   36       -5.589335   1.000000
   37       -5.553904   1.000000
   38       -5.375118   1.000000
   39       -5.320245   1.000000
   40       -5.302651   1.000000
   41       -5.247871   1.000000
   42       -5.169005   1.000000
   43       -5.088607   1.000000
   44       -4.999276   1.000000
   45       -4.906871   1.000000
   46       -4.792585   1.000000
   47       -4.754711   1.000000
   48       -4.688846   1.000000
   49       -4.606775   1.000000
   50       -4.593079   1.000000
   51       -4.555065   1.000000
   52       -4.462787   1.000000
   53       -4.373628   1.000000
   54       -4.349386   1.000000
   55       -4.297763   1.000000
   56       -4.261603   1.000000
   57       -4.180159   1.000000
   58       -4.080368   1.000000
   59       -4.032588   1.000000
   60       -3.995071   1.000000
   61       -3.818590   1.000000
   62       -3.768506   1.000000
   63       -3.602130   1.000000
   64       -3.565810   1.000000
   65       -3.524338   1.000000
   66       -3.471550   1.000000
   67       -3.435077   1.000000
   68       -3.351547   1.000000
   69       -3.319737   1.000000
   70       -3.179339   1.000000
   71       -3.060529   1.000000
   72       -3.000526   1.000000
   73       -2.865738   1.000000
   74       -2.741779   1.000000
   75       -2.672517   1.000000
   76       -2.604101   1.000000
   77       -2.564712   1.000000
   78       -2.428858   1.000000
   79       -2.369215   1.000000
   80       -2.056592   1.000000
   81       -1.973764   1.000000
   82       -1.676560   1.000000
   83       -1.543343   1.000000
   84       -1.276686   1.000000
   85       -1.211337   1.000000
   86       -0.987332   1.000000
   87       -0.928327   1.000000
   88       -0.897691   1.000000
   89       -0.834724   1.000000
   90       -0.629865   1.000000
   91       -0.413905   1.000003
   92       -0.366692   1.000064
   93       -0.036450   0.306572
   94       -0.017387   0.173022
   95        0.054228  -0.034294
   96        0.207352  -0.000515
   97        0.219877  -0.000275
   98        0.290761  -0.000004
   99        0.368879  -0.000000
  100        0.548582  -0.000000
  101        0.771896  -0.000000
  102        0.802592  -0.000000
  103        0.815531  -0.000000
  104        0.834921  -0.000000
  105        0.917885  -0.000000
  106        0.983128  -0.000000
  107        1.242933  -0.000000
  108        1.277421  -0.000000
  109        1.316931  -0.000000
  110        1.343950  -0.000000
  111        1.382234  -0.000000
  112        1.437755  -0.000000
  113        1.472086  -0.000000
  114        1.488475  -0.000000
  115        1.599121  -0.000000
  116        1.648978  -0.000000
  117        1.658003  -0.000000
  118        1.747399  -0.000000
  119        1.765481  -0.000000
  120        1.793795  -0.000000

  0.4444444E+00  0.3870091E-15  0.3932070E-15  0.6734007E-02
    1      -13.656870   1.000000
    2      -13.439539   1.000000
    3      -12.322371   1.000000
    4      -12.144881   1.000000
    5      -11.453467   1.000000
    6      -11.333387   1.000000
    7      -11.211633   1.000000
    8      -11.205139   1.000000
    9      -10.938974   1.000000
   10      -10.775624   1.000000
   11      -10.749710   1.000000
   12      -10.743417   1.000000
   13      -10.257679   1.000000
   14      -10.253535   1.000000
   15       -9.708067   1.000000
   16       -9.651208   1.000000
   17       -9.221087   1.000000
   18       -9.010595   1.000000
   19       -8.945872   1.000000
   20       -8.817313   1.000000
   21       -8.639560   1.000000
   22       -8.609634   1.000000
   23       -8.554238   1.000000
   24       -8.381357   1.000000
   25       -8.359356   1.000000
   26       -8.288484   1.000000
   27       -7.410673   1.000000
   28       -7.155587   1.000000
   29       -6.978803   1.000000
   30       -6.562987   1.000000
   31       -6.519229   1.000000
   32       -6.459858   1.000000
   33       -5.851795   1.000000
   34       -5.754584   1.000000
   35       -5.678064   1.000000
   36       -5.576763   1.000000
   37       -5.496848   1.000000
   38       -5.434579   1.000000
   39       -5.399454   1.000000
   40       -5.315696   1.000000
   41       -5.283402   1.000000
   42       -5.088839   1.000000
   43       -5.002294   1.000000
   44       -4.919580   1.000000
   45       -4.872705   1.000000
   46       -4.817973   1.000000
   47       -4.770353   1.000000
   48       -4.713247   1.000000
   49       -4.633105   1.000000
   50       -4.524134   1.000000
   51       -4.484398   1.000000
   52       -4.446315   1.000000
   53       -4.389232   1.000000
   54       -4.367115   1.000000
   55       -4.244287   1.000000
   56       -4.207671   1.000000
   57       -4.175530   1.000000
   58       -4.108003   1.000000
   59       -3.998943   1.000000
   60       -3.974744   1.000000
   61       -3.902550   1.000000
   62       -3.792263   1.000000
   63       -3.701248   1.000000
   64       -3.583510   1.000000
   65       -3.536855   1.000000
   66       -3.449473   1.000000
   67       -3.421556   1.000000
   68       -3.332787   1.000000
   69       -3.320148   1.000000
   70       -3.129835   1.000000
   71       -3.045597   1.000000
   72       -2.986541   1.000000
   73       -2.858929   1.000000
   74       -2.827477   1.000000
   75       -2.758923   1.000000
   76       -2.698851   1.000000
   77       -2.567590   1.000000
   78       -2.460147   1.000000
   79       -2.341544   1.000000
   80       -2.217195   1.000000
   81       -1.919615   1.000000
   82       -1.741640   1.000000
   83       -1.498416   1.000000
   84       -1.335197   1.000000
   85       -1.116709   1.000000
   86       -0.996429   1.000000
   87       -0.969610   1.000000
   88       -0.882646   1.000000
   89       -0.653988   1.000000
   90       -0.616119   1.000000
   91       -0.552357   1.000000
   92       -0.276680   1.004499
   93       -0.060418   0.503399
   94       -0.024353   0.218414
   95        0.040000  -0.025144
   96        0.139725  -0.008062
   97        0.194187  -0.000958
   98        0.296741  -0.000003
   99        0.483587  -0.000000
  100        0.534908  -0.000000
  101        0.709094  -0.000000
  102        0.813789  -0.000000
  103        0.834659  -0.000000
  104        0.865928  -0.000000
  105        1.110866  -0.000000
  106        1.144383  -0.000000
  107        1.225761  -0.000000
  108        1.339769  -0.000000
  109        1.357696  -0.000000
  110        1.385792  -0.000000
  111        1.435798  -0.000000
  112        1.442802  -0.000000
  113        1.471872  -0.000000
  114        1.506028  -0.000000
  115        1.508442  -0.000000
  116        1.612406  -0.000000
  117        1.629055  -0.000000
  118        1.652143  -0.000000
  119        1.703277  -0.000000
  120        1.731656  -0.000000

  0.3742002E-15  0.9090909E-01  0.3596334E-15  0.6734007E-02
    1      -14.039277   1.000000
    2      -12.655946   1.000000
    3      -12.589727   1.000000
    4      -12.002717   1.000000
    5      -11.594177   1.000000
    6      -11.453853   1.000000
    7      -11.397392   1.000000
    8      -11.213704   1.000000
    9      -11.089965   1.000000
   10      -10.799288   1.000000
   11      -10.772541   1.000000
   12      -10.414271   1.000000
   13      -10.216500   1.000000
   14      -10.194496   1.000000
   15       -9.867721   1.000000
   16       -9.823043   1.000000
   17       -9.252996   1.000000
   18       -9.081694   1.000000
   19       -9.017818   1.000000
   20       -8.701046   1.000000
   21       -8.661797   1.000000
   22       -8.341722   1.000000
   23       -8.133102   1.000000
   24       -8.092697   1.000000
   25       -7.979467   1.000000
   26       -7.961603   1.000000
   27       -7.509316   1.000000
   28       -7.377292   1.000000
   29       -6.736072   1.000000
   30       -6.670285   1.000000
   31       -6.543541   1.000000
   32       -6.370453   1.000000
   33       -6.213296   1.000000
   34       -6.068922   1.000000
   35       -5.828256   1.000000
   36       -5.718073   1.000000
   37       -5.598638   1.000000
   38       -5.563342   1.000000
   39       -5.406176   1.000000
   40       -5.370303   1.000000
   41       -5.315851   1.000000
   42       -5.255090   1.000000
   43       -5.184430   1.000000
   44       -5.080149   1.000000
   45       -4.956167   1.000000
   46       -4.923627   1.000000
   47       -4.879882   1.000000
   48       -4.735993   1.000000
   49       -4.712876   1.000000
   50       -4.671159   1.000000
   51       -4.637394   1.000000
   52       -4.559872   1.000000
   53       -4.509438   1.000000
   54       -4.390582   1.000000
   55       -4.336619   1.000000
   56       -4.227807   1.000000
   57       -4.164794   1.000000
   58       -4.086118   1.000000
   59       -4.058024   1.000000
   60       -3.966388   1.000000
   61       -3.685375   1.000000
   62       -3.616410   1.000000
   63       -3.599848   1.000000
   64       -3.566266   1.000000
   65       -3.476326   1.000000
   66       -3.463446   1.000000
   67       -3.383129   1.000000
   68       -3.377978   1.000000
   69       -3.348987   1.000000
   70       -3.218170   1.000000
   71       -3.181915   1.000000
   72       -2.998258   1.000000
   73       -2.754306   1.000000
   74       -2.524395   1.000000
   75       -2.517625   1.000000
   76       -2.471440   1.000000
   77       -2.384994   1.000000
   78       -2.299042   1.000000
   79       -2.183889   1.000000
   80       -2.115774   1.000000
   81       -1.917482   1.000000
   82       -1.608529   1.000000
   83       -1.557994   1.000000
   84       -1.339462   1.000000
   85       -1.320712   1.000000
   86       -1.135239   1.000000
   87       -1.121067   1.000000
   88       -1.073681   1.000000
   89       -0.775230   1.000000
   90       -0.610271   1.000000
   91       -0.404012   1.000006
   92       -0.206573   1.029156
   93       -0.193536   1.033848
   94       -0.120225   0.920947
   95        0.052142  -0.033579
   96        0.092287  -0.026614
   97        0.140731  -0.007803
   98        0.291652  -0.000004
   99        0.348708  -0.000000
  100        0.457043  -0.000000
  101        0.654984  -0.000000
  102        0.734295  -0.000000
  103        0.739660  -0.000000
  104        0.841049  -0.000000
  105        0.923436  -0.000000
  106        0.994647  -0.000000
  107        1.079901  -0.000000
  108        1.190168  -0.000000
  109        1.216460  -0.000000
  110        1.295894  -0.000000
  111        1.327865  -0.000000
  112        1.382049  -0.000000
  113        1.434246  -0.000000
  114        1.473703  -0.000000
  115        1.563129  -0.000000
  116        1.608343  -0.000000
  117        1.622767  -0.000000
  118        1.718670  -0.000000
  119        1.752154  -0.000000
  120        1.865860  -0.000000

  0.1111111E+00  0.9090909E-01  0.4822234E-15  0.6734007E-02
    1      -13.990517   1.000000
    2      -12.769494   1.000000
    3      -12.610355   1.000000
    4      -11.930082   1.000000
    5      -11.568442   1.000000
    6      -11.499003   1.000000
    7      -11.342976   1.000000
    8      -11.194382   1.000000
    9      -11.146484   1.000000
   10      -10.802199   1.000000
   11      -10.709352   1.000000
   12      -10.443641   1.000000
   13      -10.259743   1.000000
   14      -10.214656   1.000000
   15       -9.829595   1.000000
   16       -9.775389   1.000000
   17       -9.258233   1.000000
   18       -9.079464   1.000000
   19       -8.979830   1.000000
   20       -8.766647   1.000000
   21       -8.690492   1.000000
   22       -8.410826   1.000000
   23       -8.174446   1.000000
   24       -8.050265   1.000000
   25       -7.994035   1.000000
   26       -7.980336   1.000000
   27       -7.655656   1.000000
   28       -7.357876   1.000000
   29       -6.744971   1.000000
   30       -6.572181   1.000000
   31       -6.437739   1.000000
   32       -6.308076   1.000000
   33       -6.220298   1.000000
   34       -6.079487   1.000000
   35       -5.883702   1.000000
   36       -5.640076   1.000000
   37       -5.587601   1.000000
   38       -5.511129   1.000000
   39       -5.483279   1.000000
   40       -5.343297   1.000000
   41       -5.257237   1.000000
   42       -5.244993   1.000000
   43       -5.200982   1.000000
   44       -5.087514   1.000000
   45       -4.934502   1.000000
   46       -4.864085   1.000000
   47       -4.800131   1.000000
   48       -4.720505   1.000000
   49       -4.682613   1.000000
   50       -4.637676   1.000000
   51       -4.601640   1.000000
   52       -4.547129   1.000000
   53       -4.522422   1.000000
   54       -4.406683   1.000000
   55       -4.363162   1.000000
   56       -4.254230   1.000000
   57       -4.169195   1.000000
   58       -4.096081   1.000000
   59       -4.056671   1.000000
   60       -3.920721   1.000000
   61       -3.726563   1.000000
   62       -3.652202   1.000000
   63       -3.627531   1.000000
   64       -3.572714   1.000000
   65       -3.489133   1.000000
   66       -3.461484   1.000000
   67       -3.362952   1.000000
   68       -3.340941   1.000000
   69       -3.323397   1.000000
   70       -3.229504   1.000000
   71       -3.196438   1.000000
   72       -3.049907   1.000000
   73       -2.755068   1.000000
   74       -2.586869   1.000000
   75       -2.556707   1.000000
   76       -2.527462   1.000000
   77       -2.389774   1.000000
   78       -2.359541   1.000000
   79       -2.179679   1.000000
   80       -2.140337   1.000000
   81       -1.907632   1.000000
   82       -1.600498   1.000000
   83       -1.576980   1.000000
   84       -1.435304   1.000000
   85       -1.303836   1.000000
   86       -1.115951   1.000000
   87       -0.996706   1.000000
   88       -0.916722   1.000000
   89       -0.809783   1.000000
   90       -0.694654   1.000000
   91       -0.429036   1.000001
   92       -0.212054   1.026734
   93       -0.168423   1.031795
   94       -0.014199   0.153728
   95        0.009715   0.041065
   96        0.088932  -0.028118
   97        0.118323  -0.015078
   98        0.242231  -0.000082
   99        0.307729  -0.000001
  100        0.588740  -0.000000
  101        0.664625  -0.000000
  102        0.720315  -0.000000
  103        0.765855  -0.000000
  104        0.859440  -0.000000
  105        0.927654  -0.000000
  106        1.000886  -0.000000
  107        1.150476  -0.000000
  108        1.172944  -0.000000
  109        1.222799  -0.000000
  110        1.258832  -0.000000
  111        1.355144  -0.000000
  112        1.422993  -0.000000
  113        1.483752  -0.000000
  114        1.509751  -0.000000
  115        1.533981  -0.000000
  116        1.606991  -0.000000
  117        1.622364  -0.000000
  118        1.704560  -0.000000
  119        1.792951  -0.000000
  120        1.824818  -0.000000

  0.2222222E+00  0.9090909E-01  0.3065600E-15  0.6734007E-02
    1      -13.889624   1.000000
    2      -13.017764   1.000000
    3      -12.520120   1.000000
    4      -11.926615   1.000000
    5      -11.541525   1.000000
    6      -11.513169   1.000000
    7      -11.293227   1.000000
    8      -11.247858   1.000000
    9      -11.095237   1.000000
   10      -10.769712   1.000000
   11      -10.623469   1.000000
   12      -10.528818   1.000000
   13      -10.338669   1.000000
   14      -10.253279   1.000000
   15       -9.756636   1.000000
   16       -9.685718   1.000000
   17       -9.270477   1.000000
   18       -9.091673   1.000000
   19       -8.929653   1.000000
   20       -8.802922   1.000000
   21       -8.763011   1.000000
   22       -8.533347   1.000000
   23       -8.268679   1.000000
   24       -8.074946   1.000000
   25       -8.034580   1.000000
   26       -7.877235   1.000000
   27       -7.826088   1.000000
   28       -7.293158   1.000000
   29       -6.752377   1.000000
   30       -6.494350   1.000000
   31       -6.423343   1.000000
   32       -6.330536   1.000000
   33       -6.155253   1.000000
   34       -6.038422   1.000000
   35       -5.835231   1.000000
   36       -5.686858   1.000000
   37       -5.509065   1.000000
   38       -5.432545   1.000000
   39       -5.395752   1.000000
   40       -5.323047   1.000000
   41       -5.264318   1.000000
   42       -5.209076   1.000000
   43       -5.138098   1.000000
   44       -5.082773   1.000000
   45       -4.912925   1.000000
   46       -4.828910   1.000000
   47       -4.771761   1.000000
   48       -4.685864   1.000000