   55   55    1    1
  0.1346139E+02  0.6042588E-09  0.6042559E-09  0.2341357E-08  0.5000000E-15
   1.0000000000000000E-004
  CAR 
 Name                                    
    197     41    126

  0.3742002E-15  0.3742002E-15  0.1262379E-14  0.1234568E-01
    1      -11.714543   1.000000
    2      -11.138045   1.000000
    3      -10.344088   1.000000
    4       -9.129387   1.000000
    5       -8.882036   1.000000
    6       -8.409697   1.000000
    7       -8.242512   1.000000
    8       -8.137664   1.000000
    9       -7.936817   1.000000
   10       -7.871954   1.000000
   11       -7.865033   1.000000
   12       -7.761825   1.000000
   13       -7.744523   1.000000
   14       -7.692198   1.000000
   15       -7.499160   1.000000
   16       -7.459869   1.000000
   17       -7.344135   1.000000
   18       -7.218183   1.000000
   19       -7.129964   1.000000
   20       -6.837797   1.000000
   21       -6.790257   1.000000
   22       -6.420282   1.000000
   23       -6.225834   1.000000
   24       -6.057237   1.000000
   25       -6.001612   1.000000
   26       -5.937877   1.000000
   27       -5.936953   1.000000
   28       -5.716732   1.000000
   29       -5.544146   1.000000
   30       -5.355864   1.000000
   31       -4.868917   1.000000
   32       -4.833370   1.000000
   33       -4.688315   1.000000
   34       -4.679484   1.000000
   35       -4.598243   1.000000
   36       -4.256156   1.000000
   37       -4.134106   1.000000
   38       -3.347986   1.000000
   39       -3.311032   1.000000
   40       -2.982043   1.000000
   41       -2.961001   1.000000
   42       -2.876169   1.000000
   43       -2.828806   1.000000
   44       -2.595693   1.000000
   45       -2.489191   1.000000
   46       -2.475600   1.000000
   47       -2.114476   1.000000
   48       -2.096355   1.000000
   49       -2.073321   1.000000
   50       -1.973950   1.000000
   51       -1.864888   1.000000
   52       -1.810023   1.000000
   53       -1.777980   1.000000
   54       -1.695905   1.000000
   55       -1.583835   1.000000
   56       -1.553903   1.000000
   57       -1.534098   1.000000
   58       -1.501865   1.000000
   59       -1.424073   1.000000
   60       -1.360207   1.000000
   61       -1.309590   1.000000
   62       -1.306936   1.000000
   63       -1.129602   1.000000
   64       -1.041819   1.000000
   65       -0.971648   1.000000
   66       -0.922764   1.000000
   67       -0.880811   1.000000
   68       -0.793565   1.000000
   69       -0.683378   1.000000
   70       -0.650102   1.000000
   71       -0.510091   1.000000
   72       -0.362094   1.000000
   73       -0.347253   1.000000
   74       -0.313347   1.000000
   75       -0.300242   1.000000
   76       -0.271338   1.000000
   77       -0.246406   1.000000
   78       -0.157030   1.000000
   79        0.079878   1.000000
   80        0.101435   1.000000
   81        0.417805   1.000000
   82        0.567869   1.000000
   83        0.781126   1.000000
   84        1.055487   1.000000
   85        1.158667   1.000000
   86        1.199855   1.000000
   87        1.310613   1.000000
   88        1.339760   1.000000
   89        1.441052   1.000000
   90        1.483464   1.000000
   91        1.491295   1.000000
   92        1.515102   1.000000
   93        1.635789   1.000001
   94        1.712159   1.000011
   95        1.814495   1.000215
   96        1.815710   1.000222
   97        2.096909   1.030460
   98        2.164958   1.032327
   99        2.631735  -0.035423
  100        2.700034  -0.023922
  101        2.728407  -0.017541
  102        2.916778  -0.000536
  103        2.930728  -0.000380
  104        3.148101  -0.000000
  105        3.212541  -0.000000
  106        3.221422  -0.000000
  107        3.234952  -0.000000
  108        3.388555  -0.000000
  109        3.391361  -0.000000
  110        3.461856  -0.000000
  111        3.514015  -0.000000
  112        3.562005  -0.000000
  113        3.638967  -0.000000
  114        3.695051  -0.000000
  115        3.712114  -0.000000
  116        3.826948  -0.000000
  117        3.838342  -0.000000
  118        3.902476  -0.000000
  119        4.011874  -0.000000
  120        4.173682  -0.000000
  121        4.216221  -0.000000
  122        5.733695  -0.000000
  123        5.991972  -0.000000
  124        6.087745  -0.000000
  125        6.336618  -0.000000
  126        6.663330  -0.000000

  0.1111111E+00  0.3867788E-15  0.1262378E-14  0.2469136E-01
    1      -11.657216   1.000000
    2      -11.085327   1.000000
    3      -10.302016   1.000000
    4       -9.094573   1.000000
    5       -8.847550   1.000000
    6       -8.463744   1.000000
    7       -8.450424   1.000000
    8       -8.359444   1.000000
    9       -8.271171   1.000000
   10       -8.061570   1.000000
   11       -8.040270   1.000000
   12       -7.932426   1.000000
   13       -7.906406   1.000000
   14       -7.766498   1.000000
   15       -7.280130   1.000000
   16       -7.202549   1.000000
   17       -7.065805   1.000000
   18       -6.962193   1.000000
   19       -6.901747   1.000000
   20       -6.828352   1.000000
   21       -6.631756   1.000000
   22       -6.311717   1.000000
   23       -6.247877   1.000000
   24       -6.104432   1.000000
   25       -5.987293   1.000000
   26       -5.975395   1.000000
   27       -5.818971   1.000000
   28       -5.715076   1.000000
   29       -5.563088   1.000000
   30       -5.300836   1.000000
   31       -4.843851   1.000000
   32       -4.666019   1.000000
   33       -4.634681   1.000000
   34       -4.475186   1.000000
   35       -4.426893   1.000000
   36       -4.104557   1.000000
   37       -4.022227   1.000000
   38       -3.342587   1.000000
   39       -3.315110   1.000000
   40       -2.982762   1.000000
   41       -2.964387   1.000000
   42       -2.918668   1.000000
   43       -2.875073   1.000000
   44       -2.655547   1.000000
   45       -2.544611   1.000000
   46       -2.513802   1.000000
   47       -2.402783   1.000000
   48       -2.192816   1.000000
   49       -2.042102   1.000000
   50       -1.990857   1.000000
   51       -1.906386   1.000000
   52       -1.853482   1.000000
   53       -1.785359   1.000000
   54       -1.751836   1.000000
   55       -1.621071   1.000000
   56       -1.569840   1.000000
   57       -1.535433   1.000000
   58       -1.508886   1.000000
   59       -1.473062   1.000000
   60       -1.394950   1.000000
   61       -1.338710   1.000000
   62       -1.296060   1.000000
   63       -1.222172   1.000000
   64       -1.097723   1.000000
   65       -1.024971   1.000000
   66       -0.961565   1.000000
   67       -0.938028   1.000000
   68       -0.766556   1.000000
   69       -0.741956   1.000000
   70       -0.677002   1.000000
   71       -0.528944   1.000000
   72       -0.447434   1.000000
   73       -0.414760   1.000000
   74       -0.364052   1.000000
   75       -0.303611   1.000000
   76       -0.203535   1.000000
   77       -0.135390   1.000000
   78       -0.076360   1.000000
   79        0.048906   1.000000
   80        0.126348   1.000000
   81        0.267691   1.000000
   82        0.471758   1.000000
   83        0.511958   1.000000
   84        0.940278   1.000000
   85        1.004533   1.000000
   86        1.138773   1.000000
   87        1.266733   1.000000
   88        1.367048   1.000000
   89        1.390695   1.000000
   90        1.418819   1.000000
   91        1.437492   1.000000
   92        1.494832   1.000000
   93        1.633465   1.000001
   94        1.769399   1.000062
   95        1.837869   1.000391
   96        1.855630   1.000604
   97        2.341666   0.673712
   98        2.411252   0.384776
   99        2.582511  -0.024481
  100        2.708216  -0.022033
  101        2.753120  -0.012694
  102        2.804394  -0.005645
  103        2.886360  -0.001092
  104        3.007426  -0.000047
  105        3.170907  -0.000000
  106        3.360321  -0.000000
  107        3.369191  -0.000000
  108        3.396924  -0.000000
  109        3.422096  -0.000000
  110        3.476229  -0.000000
  111        3.524131  -0.000000
  112        3.561171  -0.000000
  113        3.616076  -0.000000
  114        3.654486  -0.000000
  115        3.687926  -0.000000
  116        3.763277  -0.000000
  117        3.845202  -0.000000
  118        3.861455  -0.000000
  119        3.891495  -0.000000
  120        4.088222  -0.000000
  121        4.135527  -0.000000
  122        4.234876  -0.000000
  123        5.971880  -0.000000
  124        6.013075  -0.000000
  125        6.191135  -0.000000
  126        6.556782  -0.000000

  0.2222222E+00  0.3825705E-15  0.1262378E-14  0.2469136E-01
    1      -11.487213   1.000000
    2      -10.929316   1.000000
    3      -10.178290   1.000000
    4       -9.134834   1.000000
    5       -8.990476   1.000000
    6       -8.847829   1.000000
    7       -8.751486   1.000000
    8       -8.666982   1.000000
    9       -8.345656   1.000000
   10       -8.300766   1.000000
   11       -8.217015   1.000000
   12       -8.171232   1.000000
   13       -8.079189   1.000000
   14       -7.873335   1.000000
   15       -7.283279   1.000000
   16       -7.113778   1.000000
   17       -6.803038   1.000000
   18       -6.780150   1.000000
   19       -6.652181   1.000000
   20       -6.602246   1.000000
   21       -6.313655   1.000000
   22       -6.177804   1.000000
   23       -6.076932   1.000000
   24       -5.959359   1.000000
   25       -5.876907   1.000000
   26       -5.796139   1.000000
   27       -5.722547   1.000000
   28       -5.559203   1.000000
   29       -5.212285   1.000000
   30       -5.122075   1.000000
   31       -4.698954   1.000000
   32       -4.451865   1.000000
   33       -4.434616   1.000000
   34       -4.181579   1.000000
   35       -3.959329   1.000000
   36       -3.890005   1.000000
   37       -3.576391   1.000000
   38       -3.378181   1.000000
   39       -3.341021   1.000000
   40       -3.208853   1.000000
   41       -3.104950   1.000000
   42       -3.086396   1.000000
   43       -2.920133   1.000000
   44       -2.891189   1.000000
   45       -2.743686   1.000000
   46       -2.654906   1.000000
   47       -2.524148   1.000000
   48       -2.350100   1.000000
   49       -2.140914   1.000000
   50       -2.088908   1.000000
   51       -2.006890   1.000000
   52       -1.888404   1.000000
   53       -1.844872   1.000000
   54       -1.823287   1.000000
   55       -1.704040   1.000000
   56       -1.678276   1.000000
   57       -1.642556   1.000000
   58       -1.595497   1.000000
   59       -1.544073   1.000000
   60       -1.493661   1.000000
   61       -1.474634   1.000000
   62       -1.362252   1.000000
   63       -1.319015   1.000000
   64       -1.208582   1.000000
   65       -1.151868   1.000000
   66       -1.095638   1.000000
   67       -1.013213   1.000000
   68       -0.931174   1.000000
   69       -0.900865   1.000000
   70       -0.725437   1.000000
   71       -0.687572   1.000000
   72       -0.554363   1.000000
   73       -0.481748   1.000000
   74       -0.459146   1.000000
   75       -0.364781   1.000000
   76       -0.265821   1.000000
   77       -0.116497   1.000000
   78       -0.030850   1.000000
   79        0.013025   1.000000
   80        0.205707   1.000000
   81        0.275786   1.000000
   82        0.378986   1.000000
   83        0.499139   1.000000
   84        0.659090   1.000000
   85        0.747982   1.000000
   86        1.011170   1.000000
   87        1.143918   1.000000
   88        1.192442   1.000000
   89        1.324708   1.000000
   90        1.357254   1.000000
   91        1.371891   1.000000
   92        1.414785   1.000000
   93        1.697235   1.000007
   94        1.772134   1.000067
   95        1.847053   1.000491
   96        1.929286   1.003013
   97        2.365670   0.576092
   98        2.399721   0.432591
   99        2.555969  -0.004085
  100        2.668496  -0.030870
  101        2.800699  -0.006020
  102        2.964155  -0.000160
  103        3.071232  -0.000007
  104        3.094401  -0.000003
  105        3.219632  -0.000000
  106        3.230691  -0.000000
  107        3.256977  -0.000000
  108        3.308046  -0.000000
  109        3.329595  -0.000000
  110        3.389259  -0.000000
  111        3.407503  -0.000000
  112        3.508553  -0.000000
  113        3.550837  -0.000000
  114        3.578618  -0.000000
  115        3.603628  -0.000000
  116        3.643389  -0.000000
  117        3.733074  -0.000000
  118        3.781373  -0.000000
  119        3.826199  -0.000000
  120        3.872497  -0.000000
  121        3.909531  -0.000000
  122        3.956764  -0.000000
  123        4.183879  -0.000000
  124        4.220680  -0.000000
  125        4.432770  -0.000000
  126        6.117056  -0.000000

  0.3333333E+00  0.3885513E-15  0.1262378E-14  0.2469136E-01
    1      -11.211486   1.000000
    2      -10.676967   1.000000
    3       -9.981522   1.000000
    4       -9.749085   1.000000
    5       -9.387377   1.000000
    6       -9.038554   1.000000
    7       -8.819294   1.000000
    8       -8.565886   1.000000
    9       -8.475791   1.000000
   10       -8.408054   1.000000
   11       -8.358441   1.000000
   12       -8.283440   1.000000
   13       -8.197034   1.000000
   14       -7.912871   1.000000
   15       -7.573675   1.000000
   16       -7.524382   1.000000
   17       -6.602856   1.000000
   18       -6.594531   1.000000
   19       -6.442590   1.000000
   20       -6.259423   1.000000
   21       -6.117966   1.000000
   22       -6.070530   1.000000
   23       -5.898760   1.000000
   24       -5.869713   1.000000
   25       -5.743935   1.000000
   26       -5.541718   1.000000
   27       -5.097031   1.000000
   28       -4.949202   1.000000
   29       -4.835415   1.000000
   30       -4.629297   1.000000
   31       -4.420005   1.000000
   32       -4.191889   1.000000
   33       -4.155296   1.000000
   34       -3.906578   1.000000
   35       -3.782858   1.000000
   36       -3.720674   1.000000
   37       -3.583973   1.000000
   38       -3.528303   1.000000
   39       -3.515531   1.000000
   40       -3.475781   1.000000
   41       -3.422469   1.000000
   42       -3.385471   1.000000
   43       -3.018597   1.000000
   44       -2.736719   1.000000
   45       -2.705193   1.000000
   46       -2.672846   1.000000
   47       -2.524131   1.000000
   48       -2.409002   1.000000
   49       -2.364645   1.000000
   50       -2.265554   1.000000
   51       -2.167538   1.000000
   52       -2.104112   1.000000
   53       -2.048215   1.000000
   54       -1.931981   1.000000
   55       -1.903770   1.000000
   56       -1.842087   1.000000
   57       -1.753129   1.000000
   58       -1.703265   1.000000
   59       -1.681490   1.000000
   60       -1.595076   1.000000
   61       -1.565390   1.000000
   62       -1.538587   1.000000
   63       -1.479128   1.000000
   64       -1.422662   1.000000
   65       -1.378726   1.000000
   66       -1.180484   1.000000
   67       -1.089407   1.000000
   68       -0.982301   1.000000
   69       -0.942376   1.000000
   70       -0.864720   1.000000
   71       -0.768795   1.000000
   72       -0.715702   1.000000
   73       -0.592069   1.000000
   74       -0.523742   1.000000
   75       -0.357940   1.000000
   76       -0.331172   1.000000
   77       -0.245594   1.000000
   78       -0.007875   1.000000
   79        0.033369   1.000000
   80        0.105495   1.000000
   81        0.350935   1.000000
   82        0.383413   1.000000
   83        0.567490   1.000000
   84        0.641927   1.000000
   85        0.733974   1.000000
   86        0.873923   1.000000
   87        1.076869   1.000000
   88        1.102495   1.000000
   89        1.194408   1.000000
   90        1.248233   1.000000
   91        1.343046   1.000000
   92        1.410928   1.000000
   93        1.654243   1.000002
   94        1.723769   1.000016
   95        1.756209   1.000042
   96        2.082372   1.027347
   97        2.166291   1.031971
   98        2.297053   0.831360
   99        2.426145   0.324940
  100        2.681460  -0.028155
  101        2.748206  -0.013587
  102        2.830925  -0.003469
  103        2.907382  -0.000672
  104        2.966603  -0.000150
  105        3.016071  -0.000037
  106        3.170314  -0.000000
  107        3.212120  -0.000000
  108        3.249159  -0.000000
  109        3.287148  -0.000000
  110        3.331890  -0.000000
  111        3.408924  -0.000000
  112        3.427689  -0.000000
  113        3.484752  -0.000000
  114        3.507048  -0.000000
  115        3.599159  -0.000000
  116        3.697654  -0.000000
  117        3.715546  -0.000000
  118        3.772228  -0.000000
  119        3.852095  -0.000000
  120        3.896614  -0.000000
  121        3.940703  -0.000000
  122        4.027931  -0.000000
  123        4.091579  -0.000000
  124        4.170393  -0.000000
  125        4.302463  -0.000000
  126        4.358066  -0.000000

  0.4444444E+00  0.3777319E-15  0.1262376E-14  0.2469136E-01
    1      -10.857209   1.000000
    2      -10.356101   1.000000
    3      -10.270067   1.000000
    4       -9.890293   1.000000
    5       -9.687556   1.000000
    6       -9.383079   1.000000
    7       -8.684616   1.000000
    8       -8.570345   1.000000
    9       -8.482294   1.000000
   10       -8.446628   1.000000
   11       -8.350660   1.000000
   12       -8.266909   1.000000
   13       -8.233033   1.000000
   14       -7.932505   1.000000
   15       -7.913123   1.000000
   16       -7.805700   1.000000
   17       -6.564821   1.000000
   18       -6.544408   1.000000
   19       -6.478947   1.000000
   20       -6.138172   1.000000
   21       -5.910128   1.000000
   22       -5.782182   1.000000
   23       -5.760589   1.000000
   24       -5.611071   1.000000
   25       -5.601543   1.000000
   26       -5.345525   1.000000
   27       -4.575235   1.000000
   28       -4.426038   1.000000
   29       -4.302213   1.000000
   30       -4.243201   1.000000
   31       -4.184409   1.000000
   32       -4.102715   1.000000
   33       -3.978964   1.000000
   34       -3.942382   1.000000
   35       -3.897433   1.000000
   36       -3.859081   1.000000
   37       -3.786413   1.000000
   38       -3.688177   1.000000
   39       -3.643914   1.000000
   40       -3.533294   1.000000
   41       -3.447563   1.000000
   42       -3.384437   1.000000
   43       -3.266411   1.000000
   44       -3.134138   1.000000
   45       -2.819156   1.000000
   46       -2.739922   1.000000
   47       -2.492916   1.000000
   48       -2.432864   1.000000
   49       -2.379429   1.000000
   50       -2.258817   1.000000
   51       -2.178958   1.000000
   52       -2.154194   1.000000
   53       -2.113675   1.000000
   54       -2.054473   1.000000
   55       -1.977375   1.000000
   56       -1.942578   1.000000
   57       -1.861269   1.000000
   58       -1.799158   1.000000
   59       -1.737377   1.000000
   60       -1.706662   1.000000
   61       -1.634903   1.000000
   62       -1.601310   1.000000
   63       -1.576873   1.000000
   64       -1.527890   1.000000
   65       -1.433685   1.000000
   66       -1.379646   1.000000
   67       -1.322135   1.000000
   68       -1.126129   1.000000
   69       -0.977835   1.000000
   70       -0.904619   1.000000
   71       -0.810320   1.000000
   72       -0.720296   1.000000
   73       -0.624928   1.000000
   74       -0.493285   1.000000
   75       -0.398854   1.000000
   76       -0.311831   1.000000
   77       -0.266940   1.000000
   78       -0.177348   1.000000
   79        0.096304   1.000000
   80        0.168602   1.000000
   81        0.279245   1.000000
   82        0.397271   1.000000
   83        0.575911   1.000000
   84        0.682671   1.000000
   85        0.740475   1.000000
   86        0.889998   1.000000
   87        0.955452   1.000000
   88        1.066385   1.000000
   89        1.155292   1.000000
   90        1.181930   1.000000
   91        1.386642   1.000000
   92        1.407803   1.000000
   93        1.491128   1.000000
   94        1.850221   1.000530
   95        1.904585   1.001822
   96        2.124381   1.034734
   97        2.175359   1.028945
   98        2.266802   0.913012
   99        2.313510   0.777811
  100        2.374814   0.537701
  101        2.426727   0.322658
  102        2.619398  -0.035104
  103        2.820942  -0.004188
  104        2.907361  -0.000672
  105        2.979768  -0.000104
  106        3.033740  -0.000022
  107        3.154480  -0.000000
  108        3.169854  -0.000000
  109        3.242920  -0.000000
  110        3.256359  -0.000000
  111        3.291254  -0.000000
  112        3.380290  -0.000000
  113        3.424056  -0.000000
  114        3.430556  -0.000000
  115        3.565516  -0.000000
  116        3.642415  -0.000000
  117        3.709702  -0.000000
  118        3.796019  -0.000000
  119        3.834512  -0.000000
  120        3.895521  -0.000000
  121        4.052284  -0.000000
  122        4.126688  -0.000000
  123        4.228588  -0.000000
  124        4.298490  -0.000000
  125        4.594062  -0.000000
  126        4.843935  -0.000000

  0.3742002E-15  0.1111111E+00  0.1262378E-14  0.2469136E-01
    1      -11.657215   1.000000
    2      -11.085327   1.000000
    3      -10.302015   1.000000
    4       -9.094567   1.000000
    5       -8.847550   1.000000
    6       -8.463777   1.000000
    7       -8.450376   1.000000
    8       -8.359416   1.000000
    9       -8.271124   1.000000
   10       -8.061621   1.000000
   11       -8.040313   1.000000
   12       -7.932467   1.000000
   13       -7.906377   1.000000
   14       -7.766512   1.000000
   15       -7.280156   1.000000
   16       -7.202578   1.000000
   17       -7.065838   1.000000
   18       -6.962169   1.000000
   19       -6.901786   1.000000
   20       -6.828319   1.000000
   21       -6.631689   1.000000
   22       -6.311686   1.000000
   23       -6.247920   1.000000
   24       -6.104414   1.000000
   25       -5.987287   1.000000
   26       -5.975435   1.000000
   27       -5.818802   1.000000
   28       -5.715072   1.000000
   29       -5.563095   1.000000
   30       -5.300843   1.000000
   31       -4.843918   1.000000
   32       -4.666049   1.000000
   33       -4.634648   1.000000
   34       -4.475399   1.000000
   35       -4.426948   1.000000
   36       -4.104603   1.000000
   37       -4.021965   1.000000
   38       -3.342541   1.000000
   39       -3.315133   1.000000
   40       -2.982708   1.000000
   41       -2.964356   1.000000
   42       -2.918693   1.000000
   43       -2.875135   1.000000
   44       -2.655542   1.000000
   45       -2.544632   1.000000
   46       -2.513762   1.000000
   47       -2.402706   1.000000
   48       -2.192922   1.000000
   49       -2.042143   1.000000
   50       -1.990820   1.000000
   51       -1.906528   1.000000
   52       -1.853431   1.000000
   53       -1.785360   1.000000
   54       -1.751809   1.000000
   55       -1.621067   1.000000
   56       -1.569755   1.000000
   57       -1.535404   1.000000
   58       -1.508878   1.000000
   59       -1.473050   1.000000
   60       -1.394990   1.000000
   61       -1.338597   1.000000
   62       -1.296082   1.000000
   63       -1.222203   1.000000
   64       -1.097791   1.000000
   65       -1.025031   1.000000
   66       -0.961615   1.000000
   67       -0.938009   1.000000
   68       -0.766602   1.000000
   69       -0.741967   1.000000
   70       -0.676811   1.000000
   71       -0.528882   1.000000
   72       -0.447422   1.000000
   73       -0.414708   1.000000
   74       -0.364096   1.000000
   75       -0.303586   1.000000
   76       -0.203569   1.000000
   77       -0.135456   1.000000
   78       -0.076242   1.000000
   79        0.048648   1.000000
   80        0.126656   1.000000
   81        0.267462   1.000000
   82        0.471633   1.000000
   83        0.512038   1.000000
   84        0.940322   1.000000
   85        1.004550   1.000000
   86        1.138916   1.000000
   87        1.266815   1.000000
   88        1.367040   1.000000
   89        1.390654   1.000000
   90        1.418681   1.000000
   91        1.437450   1.000000
   92        1.494935   1.000000
   93        1.633315   1.000001
   94        1.769585   1.000063
   95        1.837549   1.000388
   96        1.855855   1.000607
   97        2.341951   0.672591
   98        2.410915   0.386158
   99        2.582477  -0.024463
  100        2.708277  -0.022019
  101        2.753089  -0.012699
  102        2.804408  -0.005644
  103        2.886232  -0.001095
  104        3.007490  -0.000047
  105        3.170887  -0.000000
  106        3.360157  -0.000000
  107        3.368035  -0.000000
  108        3.397244  -0.000000
  109        3.421581  -0.000000
  110        3.472521  -0.000000
  111        3.512684  -0.000000
  112        3.566216  -0.000000
  113        3.612258  -0.000000
  114        3.645629  -0.000000
  115        3.661988  -0.000000
  116        3.715359  -0.000000
  117        3.769723  -0.000000
  118        3.836453  -0.000000
  119        3.914808  -0.000000
  120        3.992347  -0.000000
  121        4.159054  -0.000000
  122        4.226576  -0.000000
  123        4.589947  -0.000000
  124        5.880495  -0.000000
  125        6.219869  -0.000000
  126        6.418720  -0.000000

  0.1111111E+00  0.1111111E+00  0.1262378E-14  0.2469136E-01
    1      -11.544078   1.000000
    2      -10.980842   1.000000
    3      -10.217433   1.000000
    4       -9.028924   1.000000
    5       -8.849693   1.000000
    6       -8.773427   1.000000
    7       -8.642887   1.000000
    8       -8.582067   1.000000
    9       -8.579237   1.000000
   10       -8.434618   1.000000
   11       -8.355844   1.000000
   12       -7.933063   1.000000
   13       -7.750807   1.000000
   14       -7.550699   1.000000
   15       -7.444218   1.000000
   16       -7.170130   1.000000
   17       -6.990255   1.000000
   18       -6.895391   1.000000
   19       -6.831091   1.000000
   20       -6.442311   1.000000
   21       -6.403754   1.000000
   22       -6.236687   1.000000
   23       -6.100637   1.000000
   24       -6.041974   1.000000
   25       -5.892850   1.000000
   26       -5.732440   1.000000
   27       -5.721301   1.000000
   28       -5.612592   1.000000
   29       -5.377336   1.000000
   30       -5.198255   1.000000
   31       -4.953826   1.000000
   32       -4.739050   1.000000
   33       -4.205526   1.000000
   34       -4.175133   1.000000
   35       -4.113538   1.000000
   36       -3.942249   1.000000
   37       -3.747374   1.000000
   38       -3.372262   1.000000
   39       -3.335175   1.000000
   40       -3.190941   1.000000
   41       -3.069163   1.000000
   42       -2.975032   1.000000
   43       -2.911956   1.000000
   44       -2.769094   1.000000
   45       -2.607036   1.000000
   46       -2.568066   1.000000
   47       -2.422141   1.000000
   48       -2.320439   1.000000
   49       -2.268747   1.000000
   50       -2.069021   1.000000
   51       -1.997255   1.000000
   52       -1.826747   1.000000
   53       -1.814981   1.000000
   54       -1.737742   1.000000
   55       -1.711308   1.000000
   56       -1.687718   1.000000
   57       -1.643872   1.000000
   58       -1.622558   1.000000
   59       -1.499167   1.000000
   60       -1.441844   1.000000
   61       -1.352883   1.000000
   62       -1.333677   1.000000
   63       -1.309122   1.000000
   64       -1.244976   1.000000
   65       -1.204879   1.000000
   66       -1.098993   1.000000
   67       -0.952538   1.000000
   68       -0.863896   1.000000
   69       -0.804224   1.000000
   70       -0.690087   1.000000
   71       -0.663784   1.000000
   72       -0.566815   1.000000
   73       -0.490507   1.000000
   74       -0.365851   1.000000
   75       -0.284957   1.000000
   76       -0.241889   1.000000
   77       -0.120646   1.000000
   78       -0.039772   1.000000
   79        0.021093   1.000000
   80        0.189139   1.000000
   81        0.252127   1.000000
   82        0.405308   1.000000
   83        0.489992   1.000000
   84        0.567217   1.000000
   85        0.837523   1.000000
   86        1.120505   1.000000
   87        1.223464   1.000000
   88        1.286329   1.000000
   89        1.297644   1.000000
   90        1.354929   1.000000
   91        1.394125   1.000000
   92        1.520851   1.000000
   93        1.649862   1.000001
   94        1.786980   1.000102
   95        1.850698   1.000536
   96        1.926845   1.002872
   97        2.370480   0.555944
   98        2.477569   0.147299
   99        2.571911  -0.017855
  100        2.626597  -0.035441
  101        2.814581  -0.004707
  102        2.850171  -0.002371
  103        3.010005  -0.000044
  104        3.079579  -0.000005
  105        3.225976  -0.000000
  106        3.242076  -0.000000
  107        3.299637  -0.000000
  108        3.329898  -0.000000
  109        3.422243  -0.000000
  110        3.465065  -0.000000
  111        3.500027  -0.000000
  112        3.529838  -0.000000
  113        3.554871  -0.000000
  114        3.575247  -0.000000
  115        3.613021  -0.000000
  116        3.699311  -0.000000
  117        3.707956  -0.000000
  118        3.786938  -0.000000
  119        3.825128  -0.000000
  120        3.847510  -0.000000
  121        3.944866  -0.000000
  122        4.029978  -0.000000
  123        4.227357  -0.000000
  124        4.447655  -0.000000
  125        4.549957  -0.000000
  126        6.340066  -0.000000

  0.2222222E+00  0.1111111E+00  0.1262377E-14  0.2469136E-01
    1      -11.321209   1.000000
    2      -10.776130   1.000000
    3      -10.054772   1.000000
    4       -9.423651   1.000000
    5       -9.122550   1.000000
    6       -8.946602   1.000000