 running on   54 total cores
 distrk:  each k-point on   54 cores,    1 groups
 distr:  one band on    9 cores,    6 groups
 using from now: INCAR     
 vasp.5.4.4.18Apr17-6-g9f103f2a35 (build Dec  7 2020 12:43:57) complex           
 POSCAR found type information on POSCAR  Mo V  B  H 
 POSCAR found :  4 types and      55 ions
 scaLAPACK will be used

 ----------------------------------------------------------------------------- 
|                                                                             |
|  ADVICE TO THIS USER RUNNING 'VASP/VAMP'   (HEAR YOUR MASTER'S VOICE ...):  |
|                                                                             |
|      You enforced a specific xc-type in the INCAR file,                     |
|      a different type was found on the POTCAR file                          |
|          I HOPE YOU KNOW, WHAT YOU ARE  DOING                               |
|                                                                             |
 ----------------------------------------------------------------------------- 

 LDA part: xc-table for Pade appr. of Perdew
 POSCAR, INCAR and KPOINTS ok, starting setup
 resort distribution
 resort distribution
 resort distribution
 resort distribution
 resort distribution
 resort distribution
 resort distribution
 resort distribution
 resort distribution
 resort distribution
 resort distribution
 resort distribution
 resort distribution
 resort distribution
 resort distribution
 resort distribution
 resort distribution
 resort distribution
 resort distribution
 resort distribution
 resort distribution
 resort distribution
 resort distribution
 resort distribution
 resort distribution
 resort distribution
 resort distribution
 resort distribution
 resort distribution
 resort distribution
 resort distribution
 resort distribution
 resort distribution
 resort distribution
 resort distribution
 resort distribution
 resort distribution
 resort distribution
 resort distribution
 resort distribution
 resort distribution
 resort distribution
 resort distribution
 resort distribution
 resort distribution
 resort distribution
 resort distribution
 resort distribution
 resort distribution
 resort distribution
 resort distribution
 resort distribution
 resort distribution
 resort distribution
 FFT: planning ...
 WAVECAR not read
 augmentation electrons   197.01562521544082     
 augmentation electrons   197.01562521544082     
 soft         electrons   0.0000000000000000     
 augmentation electrons   197.01562521544082     
 soft         electrons   0.0000000000000000     
 augmentation electrons   197.01562521544082     
 soft         electrons   0.0000000000000000     
 augmentation electrons   197.01562521544082     
 soft         electrons   0.0000000000000000     
 augmentation electrons   197.01562521544082     
 soft         electrons   0.0000000000000000     
 augmentation electrons   197.01562521544082     
 soft         electrons   0.0000000000000000     
 augmentation electrons   197.01562521544082     
 soft         electrons   0.0000000000000000     
 augmentation electrons   197.01562521544082     
 soft         electrons   0.0000000000000000     
 augmentation electrons   197.01562521544082     
 soft         electrons   0.0000000000000000     
 augmentation electrons   197.01562521544082     
 soft         electrons   0.0000000000000000     
 augmentation electrons   197.01562521544082     
 soft         electrons   0.0000000000000000     
 augmentation electrons   197.01562521544082     
 soft         electrons   0.0000000000000000     
 augmentation electrons   197.01562521544082     
 soft         electrons   0.0000000000000000     
 augmentation electrons   197.01562521544082     
 soft         electrons   0.0000000000000000     
 augmentation electrons   197.01562521544082     
 soft         electrons   0.0000000000000000     
 augmentation electrons   197.01562521544082     
 soft         electrons   0.0000000000000000     
 augmentation electrons   197.01562521544082     
 soft         electrons   0.0000000000000000     
 soft         electrons   0.0000000000000000     
 augmentation electrons   197.01562521544082     
 soft         electrons   0.0000000000000000     
 augmentation electrons   197.01562521544082     
 soft         electrons   0.0000000000000000     
 augmentation electrons   197.01562521544082     
 soft         electrons   0.0000000000000000     
 augmentation electrons   197.01562521544082     
 soft         electrons   0.0000000000000000     
 augmentation electrons   197.01562521544082     
 soft         electrons   0.0000000000000000     
 augmentation electrons   197.01562521544082     
 soft         electrons   0.0000000000000000     
 augmentation electrons   197.01562521544082     
 soft         electrons   0.0000000000000000     
 augmentation electrons   197.01562521544082     
 soft         electrons   0.0000000000000000     
 augmentation electrons   197.01562521544082     
 soft         electrons   0.0000000000000000     
 augmentation electrons   197.01562521544082     
 soft         electrons   0.0000000000000000     
 augmentation electrons   197.01562521544082     
 soft         electrons   0.0000000000000000     
 augmentation electrons   197.01562521544082     
 soft         electrons   0.0000000000000000     
 augmentation electrons   197.01562521544082     
 soft         electrons   0.0000000000000000     
 augmentation electrons   197.01562521544082     
 soft         electrons   0.0000000000000000     
 augmentation electrons   197.01562521544082     
 soft         electrons   0.0000000000000000     
 augmentation electrons   197.01562521544082     
 soft         electrons   0.0000000000000000     
 augmentation electrons   197.01562521544082     
 soft         electrons   0.0000000000000000     
 augmentation electrons   197.01562521544082     
 soft         electrons   0.0000000000000000     
 augmentation electrons   197.01562521544082     
 soft         electrons   0.0000000000000000     
 augmentation electrons   197.01562521544082     
 soft         electrons   0.0000000000000000     
 augmentation electrons   197.01562521544082     
 soft         electrons   0.0000000000000000     
 augmentation electrons   197.01562521544082     
 soft         electrons   0.0000000000000000     
 augmentation electrons   197.01562521544082     
 soft         electrons   0.0000000000000000     
 augmentation electrons   197.01562521544082     
 soft         electrons   0.0000000000000000     
 augmentation electrons   197.01562521544082     
 soft         electrons   0.0000000000000000     
 augmentation electrons   197.01562521544082     
 soft         electrons   0.0000000000000000     
 augmentation electrons   197.01562521544082     
 soft         electrons   0.0000000000000000     
 augmentation electrons   197.01562521544082     
 soft         electrons   0.0000000000000000     
 augmentation electrons   197.01562521544082     
 soft         electrons   0.0000000000000000     
 augmentation electrons   197.01562521544082     
 soft         electrons   0.0000000000000000     
 augmentation electrons   197.01562521544082     
 soft         electrons   0.0000000000000000     
 augmentation electrons   197.01562521544082     
 soft         electrons   0.0000000000000000     
 augmentation electrons   197.01562521544082     
 soft         electrons   0.0000000000000000     
 augmentation electrons   197.01562521544082     
 soft         electrons   0.0000000000000000     
 augmentation electrons   197.01562521544082     
 soft         electrons   0.0000000000000000     
 augmentation electrons   197.01562521544082     
 soft         electrons   0.0000000000000000     
 total        electrons   197.01562521544082     
 total        electrons   197.01562521544082     
 total        electrons   197.01562521544082     
 total        electrons   197.01562521544082     
 total        electrons   197.01562521544082     
 total        electrons   197.01562521544082     
 total        electrons   197.01562521544082     
 total        electrons   197.01562521544082     
 total        electrons   197.01562521544082     
 total        electrons   197.01562521544082     
 total        electrons   197.01562521544082     
 total        electrons   197.01562521544082     
 total        electrons   197.01562521544082     
 total        electrons   197.01562521544082     
 total        electrons   197.01562521544082     
 total        electrons   197.01562521544082     
 total        electrons   197.01562521544082     
 total        electrons   197.01562521544082     
 total        electrons   197.01562521544082     
 total        electrons   197.01562521544082     
 total        electrons   197.01562521544082     
 total        electrons   197.01562521544082     
 total        electrons   197.01562521544082     
 total        electrons   197.01562521544082     
 total        electrons   197.01562521544082     
 total        electrons   197.01562521544082     
 total        electrons   197.01562521544082     
 total        electrons   197.01562521544082     
 total        electrons   197.01562521544082     
 total        electrons   197.01562521544082     
 total        electrons   197.01562521544082     
 total        electrons   197.01562521544082     
 total        electrons   197.01562521544082     
 total        electrons   197.01562521544082     
 total        electrons   197.01562521544082     
 total        electrons   197.01562521544082     
 total        electrons   197.01562521544082     
 total        electrons   197.01562521544082     
 total        electrons   197.01562521544082     
 total        electrons   197.01562521544082     
 total        electrons   197.01562521544082     
 total        electrons   197.01562521544082     
 total        electrons   197.01562521544082     
 total        electrons   197.01562521544082     
 total        electrons   197.01562521544082     
 total        electrons   197.01562521544082     
 total        electrons   197.01562521544082     
 total        electrons   197.01562521544082     
 total        electrons   197.01562521544082     
 total        electrons   197.01562521544082     
 total        electrons   197.01562521544082     
 total        electrons   197.01562521544082     
 total        electrons   197.01562521544082     
 total        electrons   197.01562521544082     
 augmentation electrons   531.99364982590555     
 soft         electrons   0.0000000000000000     
 augmentation electrons   531.99364982590555     
 soft         electrons   0.0000000000000000     
 augmentation electrons   531.99364982590555     
 soft         electrons   0.0000000000000000     
 augmentation electrons   531.99364982590555     
 soft         electrons   0.0000000000000000     
 augmentation electrons   531.99364982590555     
 soft         electrons   0.0000000000000000     
 augmentation electrons   531.99364982590555     
 soft         electrons   0.0000000000000000     
 augmentation electrons   531.99364982590555     
 soft         electrons   0.0000000000000000     
 augmentation electrons   531.99364982590555     
 soft         electrons   0.0000000000000000     
 augmentation electrons   531.99364982590555     
 soft         electrons   0.0000000000000000     
 augmentation electrons   531.99364982590555     
 soft         electrons   0.0000000000000000     
 augmentation electrons   531.99364982590555     
 soft         electrons   0.0000000000000000     
 augmentation electrons   531.99364982590555     
 soft         electrons   0.0000000000000000     
 augmentation electrons   531.99364982590555     
 soft         electrons   0.0000000000000000     
 augmentation electrons   531.99364982590555     
 soft         electrons   0.0000000000000000     
 augmentation electrons   531.99364982590555     
 soft         electrons   0.0000000000000000     
 augmentation electrons   531.99364982590555     
 soft         electrons   0.0000000000000000     
 augmentation electrons   531.99364982590555     
 soft         electrons   0.0000000000000000     
 augmentation electrons   531.99364982590555     
 soft         electrons   0.0000000000000000     
 augmentation electrons   531.99364982590555     
 soft         electrons   0.0000000000000000     
 augmentation electrons   531.99364982590555     
 soft         electrons   0.0000000000000000     
 augmentation electrons   531.99364982590555     
 soft         electrons   0.0000000000000000     
 augmentation electrons   531.99364982590555     
 soft         electrons   0.0000000000000000     
 augmentation electrons   531.99364982590555     
 soft         electrons   0.0000000000000000     
 augmentation electrons   531.99364982590555     
 soft         electrons   0.0000000000000000     
 augmentation electrons   531.99364982590555     
 soft         electrons   0.0000000000000000     
 augmentation electrons   531.99364982590555     
 soft         electrons   0.0000000000000000     
 augmentation electrons   531.99364982590555     
 soft         electrons   0.0000000000000000     
 augmentation electrons   531.99364982590555     
 soft         electrons   0.0000000000000000     
 augmentation electrons   531.99364982590555     
 soft         electrons   0.0000000000000000     
 augmentation electrons   531.99364982590555     
 soft         electrons   0.0000000000000000     
 augmentation electrons   531.99364982590555     
 soft         electrons   0.0000000000000000     
 augmentation electrons   531.99364982590555     
 soft         electrons   0.0000000000000000     
 augmentation electrons   531.99364982590555     
 soft         electrons   0.0000000000000000     
 augmentation electrons   531.99364982590555     
 soft         electrons   0.0000000000000000     
 augmentation electrons   531.99364982590555     
 soft         electrons   0.0000000000000000     
 augmentation electrons   531.99364982590555     
 soft         electrons   0.0000000000000000     
 augmentation electrons   531.99364982590555     
 soft         electrons   0.0000000000000000     
 augmentation electrons   531.99364982590555     
 soft         electrons   0.0000000000000000     
 augmentation electrons   531.99364982590555     
 soft         electrons   0.0000000000000000     
 augmentation electrons   531.99364982590555     
 soft         electrons   0.0000000000000000     
 augmentation electrons   531.99364982590555     
 augmentation electrons   531.99364982590555     
 soft         electrons   0.0000000000000000     
 augmentation electrons   531.99364982590555     
 soft         electrons   0.0000000000000000     
 augmentation electrons   531.99364982590555     
 soft         electrons   0.0000000000000000     
 augmentation electrons   531.99364982590555     
 soft         electrons   0.0000000000000000     
 augmentation electrons   531.99364982590555     
 soft         electrons   0.0000000000000000     
 augmentation electrons   531.99364982590555     
 soft         electrons   0.0000000000000000     
 augmentation electrons   531.99364982590555     
 soft         electrons   0.0000000000000000     
 augmentation electrons   531.99364982590555     
 soft         electrons   0.0000000000000000     
 augmentation electrons   531.99364982590555     
 soft         electrons   0.0000000000000000     
 augmentation electrons   531.99364982590555     
 soft         electrons   0.0000000000000000     
 augmentation electrons   531.99364982590555     
 soft         electrons   0.0000000000000000     
 augmentation electrons   531.99364982590555     
 soft         electrons   0.0000000000000000     
 augmentation electrons   531.99364982590555     
 soft         electrons   0.0000000000000000     
 soft         electrons   0.0000000000000000     
 total        electrons   531.99364982590555     
 total        electrons   531.99364982590555     
 total        electrons   531.99364982590555     
 total        electrons   531.99364982590555     
 total        electrons   531.99364982590555     
 total        electrons   531.99364982590555     
 total        electrons   531.99364982590555     
 total        electrons   531.99364982590555     
 total        electrons   531.99364982590555     
 total        electrons   531.99364982590555     
 total        electrons   531.99364982590555     
 total        electrons   531.99364982590555     
 total        electrons   531.99364982590555     
 total        electrons   531.99364982590555     
 total        electrons   531.99364982590555     
 total        electrons   531.99364982590555     
 total        electrons   531.99364982590555     
 total        electrons   531.99364982590555     
 total        electrons   531.99364982590555     
 total        electrons   531.99364982590555     
 total        electrons   531.99364982590555     
 total        electrons   531.99364982590555     
 total        electrons   531.99364982590555     
 total        electrons   531.99364982590555     
 total        electrons   531.99364982590555     
 total        electrons   531.99364982590555     
 total        electrons   531.99364982590555     
 total        electrons   531.99364982590555     
 total        electrons   531.99364982590555     
 total        electrons   531.99364982590555     
 total        electrons   531.99364982590555     
 total        electrons   531.99364982590555     
 total        electrons   531.99364982590555     
 total        electrons   531.99364982590555     
 total        electrons   531.99364982590555     
 total        electrons   531.99364982590555     
 total        electrons   531.99364982590555     
 total        electrons   531.99364982590555     
 total        electrons   531.99364982590555     
 total        electrons   531.99364982590555     
 total        electrons   531.99364982590555     
 total        electrons   531.99364982590555     
 total        electrons   531.99364982590555     
 total        electrons   531.99364982590555     
 total        electrons   531.99364982590555     
 total        electrons   531.99364982590555     
 total        electrons   531.99364982590555     
 total        electrons   531.99364982590555     
 total        electrons   531.99364982590555     
 total        electrons   531.99364982590555     
 total        electrons   531.99364982590555     
 total        electrons   531.99364982590555     
 total        electrons   531.99364982590555     
 total        electrons   531.99364982590555     
 entering main loop
       N       E                     dE             d eps       ncg     rms          rms(c)
DAV:   1     0.203583087987E+04    0.20358E+04   -0.71044E+04 10332   0.141E+03
DAV:   2     0.167983629779E+02   -0.20190E+04   -0.18873E+04 10572   0.373E+02
DAV:   3    -0.447707459987E+03   -0.46451E+03   -0.44535E+03 14904   0.181E+02
DAV:   4    -0.488925924158E+03   -0.41218E+02   -0.40152E+02 16788   0.634E+01
DAV:   5    -0.490628478122E+03   -0.17026E+01   -0.16633E+01 17172   0.142E+01    0.109E+02
RMM:   6    -0.485387871552E+03    0.52406E+01   -0.10806E+03 14504   0.121E+02    0.710E+01
RMM:   7    -0.512206262121E+03   -0.26818E+02   -0.44676E+02 11008   0.105E+02    0.486E+01
RMM:   8    -0.485145433966E+03    0.27061E+02   -0.11137E+02 15173   0.337E+01    0.380E+01
RMM:   9    -0.457858677577E+03    0.27287E+02   -0.90184E+01 14170   0.320E+01    0.369E+01
RMM:  10    -0.415386279383E+03    0.42472E+02   -0.22820E+01 10616   0.225E+01    0.222E+01
RMM:  11    -0.406911477910E+03    0.84748E+01   -0.38087E+01 14699   0.171E+01    0.162E+01
RMM:  12    -0.406591648531E+03    0.31983E+00   -0.23001E+00 13969   0.479E+00    0.146E+01
RMM:  13    -0.406550966800E+03    0.40682E-01   -0.61819E-01 16189   0.115E+00    0.139E+01
RMM:  14    -0.406149912923E+03    0.40105E+00   -0.79778E-01 13040   0.318E+00    0.116E+01
RMM:  15    -0.405439359312E+03    0.71055E+00   -0.33026E+00 11477   0.789E+00    0.662E+00
RMM:  16    -0.405168111295E+03    0.27125E+00   -0.19479E+00 15169   0.386E+00    0.342E+00
RMM:  17    -0.405081942537E+03    0.86169E-01   -0.42643E-01 14259   0.172E+00    0.304E+00
RMM:  18    -0.405035361895E+03    0.46581E-01   -0.14329E-01 12877   0.146E+00    0.268E+00
RMM:  19    -0.405025643907E+03    0.97180E-02   -0.23596E-01 12310   0.192E+00    0.223E+00
RMM:  20    -0.404982484041E+03    0.43160E-01   -0.15230E-01 14578   0.117E+00    0.115E+00
RMM:  21    -0.404967502161E+03    0.14982E-01   -0.83160E-02 15370   0.691E-01    0.656E-01
RMM:  22    -0.404962683539E+03    0.48186E-02   -0.36674E-02 15256   0.515E-01    0.440E-01
RMM:  23    -0.404960051492E+03    0.26320E-02   -0.15505E-02 14030   0.422E-01    0.350E-01
RMM:  24    -0.404961137041E+03   -0.10855E-02   -0.84916E-03 13569   0.316E-01    0.307E-01
RMM:  25    -0.404959975165E+03    0.11619E-02   -0.35266E-03 12540   0.236E-01    0.177E-01
RMM:  26    -0.404960810518E+03   -0.83535E-03   -0.64270E-03 13339   0.287E-01    0.252E-01
RMM:  27    -0.404959896525E+03    0.91399E-03   -0.19423E-03 12055   0.209E-01    0.786E-02
RMM:  28    -0.404960787163E+03   -0.89064E-03   -0.17089E-03 14095   0.118E-01    0.983E-02
RMM:  29    -0.404961641400E+03   -0.85424E-03   -0.73690E-04 15369   0.697E-02    0.807E-02
RMM:  30    -0.404962039757E+03   -0.39836E-03   -0.18815E-04 12816   0.480E-02    0.646E-02
RMM:  31    -0.404962573686E+03   -0.53393E-03   -0.31952E-04 14318   0.562E-02    0.650E-02
RMM:  32    -0.404962960287E+03   -0.38660E-03   -0.24288E-04 12679   0.627E-02    0.267E-02
RMM:  33    -0.404963046971E+03   -0.86683E-04   -0.97401E-05 14573   0.160E-02    0.231E-02
RMM:  34    -0.404963089547E+03   -0.42577E-04   -0.14654E-05 11496   0.144E-02    0.152E-02
RMM:  35    -0.404963119142E+03   -0.29595E-04   -0.16730E-05 12934   0.112E-02    0.500E-03
RMM:  36    -0.404963134971E+03   -0.15829E-04   -0.26868E-06  9121   0.547E-03    0.494E-03
RMM:  37    -0.404963148558E+03   -0.13587E-04   -0.14571E-06  8506   0.423E-03    0.517E-03
RMM:  38    -0.404963153835E+03   -0.52772E-05   -0.98844E-07  8147   0.392E-03    0.149E-03
RMM:  39    -0.404963156066E+03   -0.22313E-05   -0.70043E-07  7893   0.289E-03    0.185E-03
RMM:  40    -0.404963158236E+03   -0.21695E-05   -0.67031E-07  7802   0.314E-03    0.181E-03
RMM:  41    -0.404963158718E+03   -0.48217E-06   -0.31837E-07  7319   0.239E-03
   1 F= -.40496316E+03 E0= -.40495697E+03  d E =-.185618E-01
 augmentation electrons   20.987566659407229     
 soft         electrons   176.07708017323080     
 augmentation electrons   20.987566659407229     
 soft         electrons   176.07708017323080     
 augmentation electrons   20.987566659407229     
 soft         electrons   176.07708017323080     
 augmentation electrons   20.987566659407229     
 soft         electrons   176.07708017323080     
 augmentation electrons   20.987566659407229     
 soft         electrons   176.07708017323080     
 augmentation electrons   20.987566659407229     
 soft         electrons   176.07708017323080     
 augmentation electrons   20.987566659407229     
 soft         electrons   176.07708017323080     
 augmentation electrons   20.987566659407229     
 soft         electrons   176.07708017323080     
 augmentation electrons   20.987566659407229     
 soft         electrons   176.07708017323080     
 augmentation electrons   20.987566659407229     
 soft         electrons   176.07708017323080     
 augmentation electrons   20.987566659407229     
 soft         electrons   176.07708017323080     
 augmentation electrons   20.987566659407229     
 soft         electrons   176.07708017323080     
 augmentation electrons   20.987566659407229     
 soft         electrons   176.07708017323080     
 augmentation electrons   20.987566659407229     
 soft         electrons   176.07708017323080     
 augmentation electrons   20.987566659407229     
 soft         electrons   176.07708017323080     
 augmentation electrons   20.987566659407229     
 soft         electrons   176.07708017323080     
 augmentation electrons   20.987566659407229     
 soft         electrons   176.07708017323080     
 augmentation electrons   20.987566659407229     
 soft         electrons   176.07708017323080     
 augmentation electrons   20.987566659407229     
 soft         electrons   176.07708017323080     
 augmentation electrons   20.987566659407229     
 soft         electrons   176.07708017323080     
 augmentation electrons   20.987566659407229     
 soft         electrons   176.07708017323080     
 augmentation electrons   20.987566659407229     
 soft         electrons   176.07708017323080     
 augmentation electrons   20.987566659407229     
 soft         electrons   176.07708017323080     
 augmentation electrons   20.987566659407229     
 soft         electrons   176.07708017323080     
 augmentation electrons   20.987566659407229     
 soft         electrons   176.07708017323080     
 augmentation electrons   20.987566659407229     
 soft         electrons   176.07708017323080     
 augmentation electrons   20.987566659407229     
 soft         electrons   176.07708017323080     
 augmentation electrons   20.987566659407229     
 soft         electrons   176.07708017323080     
 augmentation electrons   20.987566659407229     
 soft         electrons   176.07708017323080     
 augmentation electrons   20.987566659407229     
 soft         electrons   176.07708017323080     
 augmentation electrons   20.987566659407229     
 soft         electrons   176.07708017323080     
 augmentation electrons   20.987566659407229     
 soft         electrons   176.07708017323080     
 augmentation electrons   20.987566659407229     
 soft         electrons   176.07708017323080     
 augmentation electrons   20.987566659407229     
 soft         electrons   176.07708017323080     
 augmentation electrons   20.987566659407229     
 soft         electrons   176.07708017323080     
 augmentation electrons   20.987566659407229     
 soft         electrons   176.07708017323080     
 augmentation electrons   20.987566659407229     
 soft         electrons   176.07708017323080     
 augmentation electrons   20.987566659407229     
 soft         electrons   176.07708017323080     
 augmentation electrons   20.987566659407229     
 soft         electrons   176.07708017323080     
 augmentation electrons   20.987566659407229     
 soft         electrons   176.07708017323080     
 augmentation electrons   20.987566659407229     
 soft         electrons   176.07708017323080     
 augmentation electrons   20.987566659407229     
 soft         electrons   176.07708017323080     
 augmentation electrons   20.987566659407229     
 soft         electrons   176.07708017323080     
 augmentation electrons   20.987566659407229     
 soft         electrons   176.07708017323080     
 augmentation electrons   20.987566659407229     
 soft         electrons   176.07708017323080     
 augmentation electrons   20.987566659407229     
 soft         electrons   176.07708017323080     
 augmentation electrons   20.987566659407229     
 soft         electrons   176.07708017323080     
 augmentation electrons   20.987566659407229     
 soft         electrons   176.07708017323080     
 augmentation electrons   20.987566659407229     
 soft         electrons   176.07708017323080     
 augmentation electrons   20.987566659407229     
 augmentation electrons   20.987566659407229     
 soft         electrons   176.07708017323080     
 augmentation electrons   20.987566659407229     
 soft         electrons   176.07708017323080     
 augmentation electrons   20.987566659407229     
 soft         electrons   176.07708017323080     
 augmentation electrons   20.987566659407229     
 soft         electrons   176.07708017323080     
 soft         electrons   176.07708017323080     
 total        electrons   197.06464683263803     
 total        electrons   197.06464683263803     
 total        electrons   197.06464683263803     
 total        electrons   197.06464683263803     
 total        electrons   197.06464683263803     
 total        electrons   197.06464683263803     
 total        electrons   197.06464683263803     
 total        electrons   197.06464683263803     
 total        electrons   197.06464683263803     
 total        electrons   197.06464683263803     
 total        electrons   197.06464683263803     
 total        electrons   197.06464683263803     
 total        electrons   197.06464683263803     
 total        electrons   197.06464683263803     
 total        electrons   197.06464683263803     
 total        electrons   197.06464683263803     
 total        electrons   197.06464683263803     
 total        electrons   197.06464683263803     
 total        electrons   197.06464683263803     
 total        electrons   197.06464683263803     
 total        electrons   197.06464683263803     
 total        electrons   197.06464683263803     
 total        electrons   197.06464683263803     
 total        electrons   197.06464683263803     
 total        electrons   197.06464683263803     
 total        electrons   197.06464683263803     
 total        electrons   197.06464683263803     
 total        electrons   197.06464683263803     
 total        electrons   197.06464683263803     
 total        electrons   197.06464683263803     
 total        electrons   197.06464683263803     
 total        electrons   197.06464683263803     
 total        electrons   197.06464683263803     
 total        electrons   197.06464683263803     
 total        electrons   197.06464683263803     
 total        electrons   197.06464683263803     
 total        electrons   197.06464683263803     
 total        electrons   197.06464683263803     
 total        electrons   197.06464683263803     
 total        electrons   197.06464683263803     
 total        electrons   197.06464683263803     
 total        electrons   197.06464683263803     
 total        electrons   197.06464683263803     
 total        electrons   197.06464683263803     
 total        electrons   197.06464683263803     
 total        electrons   197.06464683263803     
 total        electrons   197.06464683263803     
 total        electrons   197.06464683263803     
 total        electrons   197.06464683263803     
 total        electrons   197.06464683263803     
 total        electrons   197.06464683263803     
 total        electrons   197.06464683263803     
 total        electrons   197.06464683263803     
 total        electrons   197.06464683263803     
Note: The following floating-point exceptions are signalling: IEEE_OVERFLOW_FLAG
Note: The following floating-point exceptions are signalling: IEEE_OVERFLOW_FLAG
Note: The following floating-point exceptions are signalling: IEEE_OVERFLOW_FLAG
Note: The following floating-point exceptions are signalling: IEEE_OVERFLOW_FLAG
Note: The following floating-point exceptions are signalling: IEEE_OVERFLOW_FLAG
Note: The following floating-point exceptions are signalling: IEEE_OVERFLOW_FLAG
Note: The following floating-point exceptions are signalling: IEEE_OVERFLOW_FLAG
Note: The following floating-point exceptions are signalling: IEEE_OVERFLOW_FLAG
Note: The following floating-point exceptions are signalling: IEEE_OVERFLOW_FLAG
Note: The following floating-point exceptions are signalling: IEEE_OVERFLOW_FLAG
Note: The following floating-point exceptions are signalling: IEEE_OVERFLOW_FLAG
Note: The following floating-point exceptions are signalling: IEEE_OVERFLOW_FLAG
Note: The following floating-point exceptions are signalling: IEEE_OVERFLOW_FLAG
Note: The following floating-point exceptions are signalling: IEEE_OVERFLOW_FLAG
Note: The following floating-point exceptions are signalling: IEEE_OVERFLOW_FLAG
Note: The following floating-point exceptions are signalling: IEEE_OVERFLOW_FLAG
Note: The following floating-point exceptions are signalling: IEEE_OVERFLOW_FLAG
Note: The following floating-point exceptions are signalling: IEEE_OVERFLOW_FLAG
Note: The following floating-point exceptions are signalling: IEEE_OVERFLOW_FLAG
Note: The following floating-point exceptions are signalling: IEEE_INVALID_FLAG IEEE_OVERFLOW_FLAG
Note: The following floating-point exceptions are signalling: IEEE_OVERFLOW_FLAG
Note: The following floating-point exceptions are signalling: IEEE_OVERFLOW_FLAG
Note: The following floating-point exceptions are signalling: IEEE_OVERFLOW_FLAG
Note: The following floating-point exceptions are signalling: IEEE_OVERFLOW_FLAG
Note: The following floating-point exceptions are signalling: IEEE_OVERFLOW_FLAG
Note: The following floating-point exceptions are signalling: IEEE_OVERFLOW_FLAG
Note: The following floating-point exceptions are signalling: IEEE_OVERFLOW_FLAG
Note: The following floating-point exceptions are signalling: IEEE_OVERFLOW_FLAG
Note: The following floating-point exceptions are signalling: IEEE_OVERFLOW_FLAG
Note: The following floating-point exceptions are signalling: IEEE_OVERFLOW_FLAG
Note: The following floating-point exceptions are signalling: IEEE_OVERFLOW_FLAG
Note: The following floating-point exceptions are signalling: IEEE_OVERFLOW_FLAG
Note: The following floating-point exceptions are signalling: IEEE_OVERFLOW_FLAG
Note: The following floating-point exceptions are signalling: IEEE_OVERFLOW_FLAG
Note: The following floating-point exceptions are signalling: IEEE_OVERFLOW_FLAG
Note: The following floating-point exceptions are signalling: IEEE_OVERFLOW_FLAG
Note: The following floating-point exceptions are signalling: IEEE_OVERFLOW_FLAG
Note: The following floating-point exceptions are signalling: IEEE_OVERFLOW_FLAG
Note: The following floating-point exceptions are signalling: IEEE_OVERFLOW_FLAG
Note: The following floating-point exceptions are signalling: IEEE_OVERFLOW_FLAG
Note: The following floating-point exceptions are signalling: IEEE_OVERFLOW_FLAG
Note: The following floating-point exceptions are signalling: IEEE_OVERFLOW_FLAG
Note: The following floating-point exceptions are signalling: IEEE_OVERFLOW_FLAG
Note: The following floating-point exceptions are signalling: IEEE_OVERFLOW_FLAG
Note: The following floating-point exceptions are signalling: IEEE_OVERFLOW_FLAG
Note: The following floating-point exceptions are signalling: IEEE_OVERFLOW_FLAG
Note: The following floating-point exceptions are signalling: IEEE_OVERFLOW_FLAG
Note: The following floating-point exceptions are signalling: IEEE_OVERFLOW_FLAG
Note: The following floating-point exceptions are signalling: IEEE_OVERFLOW_FLAG
Note: The following floating-point exceptions are signalling: IEEE_OVERFLOW_FLAG
Note: The following floating-point exceptions are signalling: IEEE_OVERFLOW_FLAG
Note: The following floating-point exceptions are signalling: IEEE_OVERFLOW_FLAG
Note: The following floating-point exceptions are signalling: IEEE_OVERFLOW_FLAG
Note: The following floating-point exceptions are signalling: IEEE_OVERFLOW_FLAG
