   73   73   85    1
  0.2139262E+02  0.1053953E-08  0.6141200E-09  0.2412750E-08  0.5000000E-15
   1.0000000000000000E-004
  CAR 
 Name                                    
    283     23    184

  0.3742002E-15  0.3742002E-15  0.1262379E-14  0.2222222E-01
    1      -14.055614   1.000000
    2      -12.927074   1.000000
    3      -12.864941   1.000000
    4      -12.814399   1.000000
    5      -11.888129   1.000000
    6      -11.738412   1.000000
    7      -11.717403   1.000000
    8      -11.670532   1.000000
    9      -11.501242   1.000000
   10      -11.340288   1.000000
   11      -11.236308   1.000000
   12      -11.144109   1.000000
   13      -11.133813   1.000000
   14      -10.811036   1.000000
   15      -10.565125   1.000000
   16      -10.311258   1.000000
   17      -10.241391   1.000000
   18      -10.235391   1.000000
   19       -9.869744   1.000000
   20       -9.748236   1.000000
   21       -9.720380   1.000000
   22       -9.668806   1.000000
   23       -9.521153   1.000000
   24       -9.383505   1.000000
   25       -8.975845   1.000000
   26       -8.961723   1.000000
   27       -8.684957   1.000000
   28       -8.567953   1.000000
   29       -8.469750   1.000000
   30       -8.324149   1.000000
   31       -8.282538   1.000000
   32       -7.967581   1.000000
   33       -7.790778   1.000000
   34       -7.446129   1.000000
   35       -7.355021   1.000000
   36       -7.292606   1.000000
   37       -7.176475   1.000000
   38       -7.106261   1.000000
   39       -7.042941   1.000000
   40       -6.878251   1.000000
   41       -6.859448   1.000000
   42       -6.804567   1.000000
   43       -6.729652   1.000000
   44       -6.644948   1.000000
   45       -6.566957   1.000000
   46       -6.551640   1.000000
   47       -6.479681   1.000000
   48       -6.331587   1.000000
   49       -6.221331   1.000000
   50       -6.209159   1.000000
   51       -5.942381   1.000000
   52       -5.917906   1.000000
   53       -5.860214   1.000000
   54       -5.792383   1.000000
   55       -5.733550   1.000000
   56       -5.661437   1.000000
   57       -5.576166   1.000000
   58       -5.485128   1.000000
   59       -5.471365   1.000000
   60       -5.356769   1.000000
   61       -5.310951   1.000000
   62       -5.087326   1.000000
   63       -5.011772   1.000000
   64       -4.885796   1.000000
   65       -4.832290   1.000000
   66       -4.793173   1.000000
   67       -4.761059   1.000000
   68       -4.739589   1.000000
   69       -4.575433   1.000000
   70       -4.518421   1.000000
   71       -4.474910   1.000000
   72       -4.353558   1.000000
   73       -4.328483   1.000000
   74       -4.289557   1.000000
   75       -4.268678   1.000000
   76       -4.248305   1.000000
   77       -4.177133   1.000000
   78       -4.073519   1.000000
   79       -4.056836   1.000000
   80       -4.046004   1.000000
   81       -4.009381   1.000000
   82       -3.986805   1.000000
   83       -3.959173   1.000000
   84       -3.904528   1.000000
   85       -3.890284   1.000000
   86       -3.783856   1.000000
   87       -3.746620   1.000000
   88       -3.704198   1.000000
   89       -3.648511   1.000000
   90       -3.613926   1.000000
   91       -3.595525   1.000000
   92       -3.451874   1.000000
   93       -3.344116   1.000000
   94       -3.234102   1.000000
   95       -3.217592   1.000000
   96       -3.088172   1.000000
   97       -2.938809   1.000000
   98       -2.926428   1.000000
   99       -2.870993   1.000000
  100       -2.785559   1.000000
  101       -2.678145   1.000000
  102       -2.628312   1.000000
  103       -2.494866   1.000000
  104       -2.485849   1.000000
  105       -2.472114   1.000000
  106       -2.419804   1.000000
  107       -2.283827   1.000000
  108       -2.234794   1.000000
  109       -2.173674   1.000000
  110       -2.084517   1.000000
  111       -2.064405   1.000000
  112       -2.012269   1.000000
  113       -1.935507   1.000000
  114       -1.925670   1.000000
  115       -1.877798   1.000000
  116       -1.860321   1.000000
  117       -1.825475   1.000000
  118       -1.772509   1.000000
  119       -1.748306   1.000000
  120       -1.671902   1.000000
  121       -1.292143   1.000000
  122       -1.133748   1.000000
  123       -1.129491   1.000000
  124       -1.075281   1.000000
  125       -0.872382   1.000000
  126       -0.809936   1.000000
  127       -0.791260   1.000000
  128       -0.641997   1.000000
  129       -0.515699   1.000000
  130       -0.454454   1.000000
  131       -0.315638   1.000000
  132       -0.299566   1.000000
  133       -0.215281   1.000000
  134       -0.133834   1.000000
  135        0.084223   1.000920
  136        0.098339   1.001718
  137        0.182567   1.024580
  138        0.199142   1.031716
  139        0.234299   1.029566
  140        0.262924   0.980173
  141        0.302403   0.789901
  142        0.368665   0.262936
  143        0.444445  -0.029679
  144        0.474675  -0.033318
  145        0.485102  -0.029474
  146        0.537298  -0.008523
  147        0.541687  -0.007394
  148        0.621376  -0.000246
  149        0.682651  -0.000007
  150        0.704427  -0.000002
  151        0.917468  -0.000000
  152        0.990654  -0.000000
  153        1.034625  -0.000000
  154        1.053882  -0.000000
  155        1.119992  -0.000000
  156        1.150806  -0.000000
  157        1.205320  -0.000000
  158        1.228909  -0.000000
  159        1.270661  -0.000000
  160        1.308581  -0.000000
  161        1.318949  -0.000000
  162        1.323948  -0.000000
  163        1.391933  -0.000000
  164        1.462825  -0.000000
  165        1.545504  -0.000000
  166        1.589542  -0.000000
  167        1.602933  -0.000000
  168        1.612492  -0.000000
  169        1.621914  -0.000000
  170        1.657055  -0.000000
  171        1.660458  -0.000000
  172        1.668819  -0.000000
  173        1.719197  -0.000000
  174        1.727757  -0.000000
  175        1.793487  -0.000000
  176        1.861181  -0.000000
  177        1.881200  -0.000000
  178        1.887782  -0.000000
  179        1.930964  -0.000000
  180        1.998266  -0.000000
  181        2.079405  -0.000000
  182        2.107619  -0.000000
  183        2.196818  -0.000000
  184        2.262353  -0.000000

  0.2000000E+00  0.3742002E-15  0.1262379E-14  0.4444444E-01
    1      -14.007145   1.000000
    2      -13.301797   1.000000
    3      -12.771005   1.000000
    4      -12.416706   1.000000
    5      -12.110661   1.000000
    6      -11.877739   1.000000
    7      -11.722604   1.000000
    8      -11.430062   1.000000
    9      -11.338650   1.000000
   10      -11.277068   1.000000
   11      -11.203556   1.000000
   12      -11.185590   1.000000
   13      -11.041660   1.000000
   14      -10.877414   1.000000
   15      -10.681917   1.000000
   16      -10.635117   1.000000
   17      -10.598871   1.000000
   18       -9.915759   1.000000
   19       -9.825124   1.000000
   20       -9.723757   1.000000
   21       -9.635955   1.000000
   22       -9.574994   1.000000
   23       -9.504290   1.000000
   24       -9.475906   1.000000
   25       -9.160129   1.000000
   26       -8.913620   1.000000
   27       -8.486692   1.000000
   28       -8.440115   1.000000
   29       -8.317855   1.000000
   30       -8.235459   1.000000
   31       -8.218200   1.000000
   32       -8.199956   1.000000
   33       -7.690246   1.000000
   34       -7.609279   1.000000
   35       -7.456654   1.000000
   36       -7.383890   1.000000
   37       -7.311308   1.000000
   38       -7.226004   1.000000
   39       -7.136020   1.000000
   40       -6.938375   1.000000
   41       -6.819924   1.000000
   42       -6.785803   1.000000
   43       -6.741297   1.000000
   44       -6.641227   1.000000
   45       -6.594577   1.000000
   46       -6.470840   1.000000
   47       -6.318950   1.000000
   48       -6.289528   1.000000
   49       -6.197947   1.000000
   50       -6.139799   1.000000
   51       -6.014581   1.000000
   52       -5.869112   1.000000
   53       -5.784351   1.000000
   54       -5.754449   1.000000
   55       -5.660608   1.000000
   56       -5.602043   1.000000
   57       -5.542198   1.000000
   58       -5.481616   1.000000
   59       -5.468057   1.000000
   60       -5.364991   1.000000
   61       -5.306017   1.000000
   62       -5.227283   1.000000
   63       -4.986037   1.000000
   64       -4.949630   1.000000
   65       -4.857858   1.000000
   66       -4.847886   1.000000
   67       -4.776940   1.000000
   68       -4.701651   1.000000
   69       -4.610482   1.000000
   70       -4.468054   1.000000
   71       -4.436886   1.000000
   72       -4.327324   1.000000
   73       -4.321759   1.000000
   74       -4.311965   1.000000
   75       -4.283342   1.000000
   76       -4.207727   1.000000
   77       -4.184621   1.000000
   78       -4.070110   1.000000
   79       -4.056134   1.000000
   80       -4.047540   1.000000
   81       -4.034718   1.000000
   82       -4.016511   1.000000
   83       -3.973961   1.000000
   84       -3.863473   1.000000
   85       -3.805751   1.000000
   86       -3.756820   1.000000
   87       -3.700634   1.000000
   88       -3.677572   1.000000
   89       -3.663652   1.000000
   90       -3.630747   1.000000
   91       -3.627493   1.000000
   92       -3.608915   1.000000
   93       -3.319726   1.000000
   94       -3.296921   1.000000
   95       -3.277879   1.000000
   96       -3.071809   1.000000
   97       -3.051387   1.000000
   98       -2.960705   1.000000
   99       -2.879671   1.000000
  100       -2.844601   1.000000
  101       -2.820183   1.000000
  102       -2.492826   1.000000
  103       -2.429611   1.000000
  104       -2.379256   1.000000
  105       -2.373774   1.000000
  106       -2.334086   1.000000
  107       -2.318292   1.000000
  108       -2.258002   1.000000
  109       -2.132135   1.000000
  110       -2.102151   1.000000
  111       -2.078276   1.000000
  112       -1.996494   1.000000
  113       -1.937164   1.000000
  114       -1.840909   1.000000
  115       -1.836914   1.000000
  116       -1.813582   1.000000
  117       -1.782415   1.000000
  118       -1.720812   1.000000
  119       -1.670274   1.000000
  120       -1.577847   1.000000
  121       -1.283734   1.000000
  122       -1.224139   1.000000
  123       -1.160269   1.000000
  124       -1.094923   1.000000
  125       -0.972725   1.000000
  126       -0.888947   1.000000
  127       -0.797113   1.000000
  128       -0.667900   1.000000
  129       -0.659165   1.000000
  130       -0.544082   1.000000
  131       -0.484134   1.000000
  132       -0.389336   1.000000
  133       -0.301052   1.000000
  134       -0.203477   1.000000
  135       -0.061742   1.000000
  136        0.025645   1.000043
  137        0.198623   1.031524
  138        0.235810   1.028376
  139        0.260729   0.986287
  140        0.305903   0.765883
  141        0.394896   0.100703
  142        0.455008  -0.034686
  143        0.477488  -0.032412
  144        0.519765  -0.014251
  145        0.545054  -0.006608
  146        0.580473  -0.001702
  147        0.585649  -0.001361
  148        0.604490  -0.000572
  149        0.638786  -0.000096
  150        0.741613  -0.000000
  151        0.969905  -0.000000
  152        1.041350  -0.000000
  153        1.066141  -0.000000
  154        1.156648  -0.000000
  155        1.165757  -0.000000
  156        1.172349  -0.000000
  157        1.182442  -0.000000
  158        1.211394  -0.000000
  159        1.313424  -0.000000
  160        1.350233  -0.000000
  161        1.363475  -0.000000
  162        1.393642  -0.000000
  163        1.445196  -0.000000
  164        1.474217  -0.000000
  165        1.519181  -0.000000
  166        1.558405  -0.000000
  167        1.580637  -0.000000
  168        1.601990  -0.000000
  169        1.622896  -0.000000
  170        1.649688  -0.000000
  171        1.694672  -0.000000
  172        1.738819  -0.000000
  173        1.753010  -0.000000
  174        1.801443  -0.000000
  175        1.814837  -0.000000
  176        1.869304  -0.000000
  177        1.885276  -0.000000
  178        1.919594  -0.000000
  179        1.952485  -0.000000
  180        1.983644  -0.000000
  181        2.026318  -0.000000
  182        2.053113  -0.000000
  183        2.146124  -0.000000
  184        2.165416  -0.000000

  0.4000000E+00  0.3742002E-15  0.1262379E-14  0.4444444E-01
    1      -13.862857   1.000000
    2      -13.625837   1.000000
    3      -12.637454   1.000000
    4      -12.414719   1.000000
    5      -11.878248   1.000000
    6      -11.846535   1.000000
    7      -11.793660   1.000000
    8      -11.344330   1.000000
    9      -11.332967   1.000000
   10      -11.291141   1.000000
   11      -11.170870   1.000000
   12      -11.086459   1.000000
   13      -11.025946   1.000000
   14      -10.914402   1.000000
   15      -10.884572   1.000000
   16      -10.761021   1.000000
   17      -10.738858   1.000000
   18      -10.181411   1.000000
   19       -9.851785   1.000000
   20       -9.728761   1.000000
   21       -9.576108   1.000000
   22       -9.498620   1.000000
   23       -9.426847   1.000000
   24       -9.344005   1.000000
   25       -9.124860   1.000000
   26       -8.895641   1.000000
   27       -8.456417   1.000000
   28       -8.319598   1.000000
   29       -8.104109   1.000000
   30       -8.028284   1.000000
   31       -7.987939   1.000000
   32       -7.981536   1.000000
   33       -7.920928   1.000000
   34       -7.832161   1.000000
   35       -7.716310   1.000000
   36       -7.706390   1.000000
   37       -7.546858   1.000000
   38       -7.359527   1.000000
   39       -7.277092   1.000000
   40       -7.004009   1.000000
   41       -6.833668   1.000000
   42       -6.671626   1.000000
   43       -6.651624   1.000000
   44       -6.581411   1.000000
   45       -6.464240   1.000000
   46       -6.391946   1.000000
   47       -6.285761   1.000000
   48       -6.215508   1.000000
   49       -6.140384   1.000000
   50       -6.092096   1.000000
   51       -6.016332   1.000000
   52       -5.943897   1.000000
   53       -5.851038   1.000000
   54       -5.777078   1.000000
   55       -5.643930   1.000000
   56       -5.566001   1.000000
   57       -5.504790   1.000000
   58       -5.453018   1.000000
   59       -5.380569   1.000000
   60       -5.265602   1.000000
   61       -5.216374   1.000000
   62       -5.138467   1.000000
   63       -5.019187   1.000000
   64       -4.978974   1.000000
   65       -4.895003   1.000000
   66       -4.850549   1.000000
   67       -4.791539   1.000000
   68       -4.724885   1.000000
   69       -4.651550   1.000000
   70       -4.541176   1.000000
   71       -4.488779   1.000000
   72       -4.389491   1.000000
   73       -4.369121   1.000000
   74       -4.296591   1.000000
   75       -4.274172   1.000000
   76       -4.254355   1.000000
   77       -4.228172   1.000000
   78       -4.051987   1.000000
   79       -4.024664   1.000000
   80       -3.977355   1.000000
   81       -3.974986   1.000000
   82       -3.947509   1.000000
   83       -3.927214   1.000000
   84       -3.858706   1.000000
   85       -3.836447   1.000000
   86       -3.764519   1.000000
   87       -3.734381   1.000000
   88       -3.694042   1.000000
   89       -3.662892   1.000000
   90       -3.566326   1.000000
   91       -3.546503   1.000000
   92       -3.527041   1.000000
   93       -3.420382   1.000000
   94       -3.389446   1.000000
   95       -3.317186   1.000000
   96       -3.293233   1.000000
   97       -3.197355   1.000000
   98       -3.093161   1.000000
   99       -3.000332   1.000000
  100       -2.875138   1.000000
  101       -2.610230   1.000000
  102       -2.494910   1.000000
  103       -2.473339   1.000000
  104       -2.438668   1.000000
  105       -2.362531   1.000000
  106       -2.158291   1.000000
  107       -2.148088   1.000000
  108       -2.145951   1.000000
  109       -2.131786   1.000000
  110       -2.023477   1.000000
  111       -2.001741   1.000000
  112       -1.961599   1.000000
  113       -1.884259   1.000000
  114       -1.842232   1.000000
  115       -1.757349   1.000000
  116       -1.696678   1.000000
  117       -1.626871   1.000000
  118       -1.559102   1.000000
  119       -1.498853   1.000000
  120       -1.466706   1.000000
  121       -1.314305   1.000000
  122       -1.283998   1.000000
  123       -1.260808   1.000000
  124       -1.208915   1.000000
  125       -1.186765   1.000000
  126       -0.975162   1.000000
  127       -0.963050   1.000000
  128       -0.925256   1.000000
  129       -0.784310   1.000000
  130       -0.752753   1.000000
  131       -0.648712   1.000000
  132       -0.530489   1.000000
  133       -0.304171   1.000000
  134       -0.266003   1.000000
  135       -0.118294   1.000000
  136        0.124752   1.004860
  137        0.157965   1.013925
  138        0.172748   1.020075
  139        0.245761   1.017051
  140        0.293240   0.847669
  141        0.337849   0.512238
  142        0.397001   0.090547
  143        0.465886  -0.035211
  144        0.553504  -0.004919
  145        0.569247  -0.002705
  146        0.606987  -0.000507
  147        0.658261  -0.000031
  148        0.796894  -0.000000
  149        0.830384  -0.000000
  150        0.846602  -0.000000
  151        0.964583  -0.000000
  152        1.079508  -0.000000
  153        1.098664  -0.000000
  154        1.167777  -0.000000
  155        1.209772  -0.000000
  156        1.267885  -0.000000
  157        1.282543  -0.000000
  158        1.335024  -0.000000
  159        1.387828  -0.000000
  160        1.420086  -0.000000
  161        1.443080  -0.000000
  162        1.464819  -0.000000
  163        1.494573  -0.000000
  164        1.511937  -0.000000
  165        1.531702  -0.000000
  166        1.541231  -0.000000
  167        1.588467  -0.000000
  168        1.632930  -0.000000
  169        1.659176  -0.000000
  170        1.670089  -0.000000
  171        1.703017  -0.000000
  172        1.708591  -0.000000
  173        1.773973  -0.000000
  174        1.782628  -0.000000
  175        1.828169  -0.000000
  176        1.859018  -0.000000
  177        1.876525  -0.000000
  178        1.890491  -0.000000
  179        1.921501  -0.000000
  180        1.967404  -0.000000
  181        1.997337  -0.000000
  182        2.012718  -0.000000
  183        2.108455  -0.000000
  184        2.142847  -0.000000

  0.3742002E-15  0.1111111E+00  0.1262379E-14  0.4444444E-01
    1      -14.008734   1.000000
    2      -12.887378   1.000000
    3      -12.831641   1.000000
    4      -12.775002   1.000000
    5      -11.992699   1.000000
    6      -11.713561   1.000000
    7      -11.703702   1.000000
    8      -11.689916   1.000000
    9      -11.539829   1.000000
   10      -11.385581   1.000000
   11      -11.214946   1.000000
   12      -11.144782   1.000000
   13      -11.143461   1.000000
   14      -10.782135   1.000000
   15      -10.585988   1.000000
   16      -10.290396   1.000000
   17      -10.221717   1.000000
   18      -10.196785   1.000000
   19       -9.849147   1.000000
   20       -9.785102   1.000000
   21       -9.734210   1.000000
   22       -9.690405   1.000000
   23       -9.535480   1.000000
   24       -9.368315   1.000000
   25       -8.997552   1.000000
   26       -8.937719   1.000000
   27       -8.684485   1.000000
   28       -8.569065   1.000000
   29       -8.452385   1.000000
   30       -8.360734   1.000000
   31       -8.106638   1.000000
   32       -7.985439   1.000000
   33       -7.896663   1.000000
   34       -7.507281   1.000000
   35       -7.459462   1.000000
   36       -7.350429   1.000000
   37       -7.146763   1.000000
   38       -7.089573   1.000000
   39       -7.024917   1.000000
   40       -6.825408   1.000000
   41       -6.813922   1.000000
   42       -6.769661   1.000000
   43       -6.732257   1.000000
   44       -6.650164   1.000000
   45       -6.554451   1.000000
   46       -6.534420   1.000000
   47       -6.493858   1.000000
   48       -6.327146   1.000000
   49       -6.266716   1.000000
   50       -6.149371   1.000000
   51       -5.991584   1.000000
   52       -5.902491   1.000000
   53       -5.785562   1.000000
   54       -5.761555   1.000000
   55       -5.724207   1.000000
   56       -5.662464   1.000000
   57       -5.555010   1.000000
   58       -5.445944   1.000000
   59       -5.404415   1.000000
   60       -5.339999   1.000000
   61       -5.294982   1.000000
   62       -5.087397   1.000000
   63       -4.967616   1.000000
   64       -4.896932   1.000000
   65       -4.835408   1.000000
   66       -4.778595   1.000000
   67       -4.745410   1.000000
   68       -4.690918   1.000000
   69       -4.616430   1.000000
   70       -4.508875   1.000000
   71       -4.445985   1.000000
   72       -4.389971   1.000000
   73       -4.370567   1.000000
   74       -4.293408   1.000000
   75       -4.284836   1.000000
   76       -4.266974   1.000000
   77       -4.178791   1.000000
   78       -4.168211   1.000000
   79       -4.157628   1.000000
   80       -4.154294   1.000000
   81       -4.063757   1.000000
   82       -4.060147   1.000000
   83       -3.919403   1.000000
   84       -3.871543   1.000000
   85       -3.854852   1.000000
   86       -3.827517   1.000000
   87       -3.791326   1.000000
   88       -3.751556   1.000000
   89       -3.630327   1.000000
   90       -3.617573   1.000000
   91       -3.581866   1.000000
   92       -3.571552   1.000000
   93       -3.384516   1.000000
   94       -3.152922   1.000000
   95       -3.035795   1.000000
   96       -3.026117   1.000000
   97       -2.950897   1.000000
   98       -2.904447   1.000000
   99       -2.886325   1.000000
  100       -2.760740   1.000000
  101       -2.684066   1.000000
  102       -2.651560   1.000000
  103       -2.610136   1.000000
  104       -2.538353   1.000000
  105       -2.428577   1.000000
  106       -2.359817   1.000000
  107       -2.342308   1.000000
  108       -2.306648   1.000000
  109       -2.215046   1.000000
  110       -2.162300   1.000000
  111       -2.133463   1.000000
  112       -2.070163   1.000000
  113       -1.982126   1.000000
  114       -1.923208   1.000000
  115       -1.832697   1.000000
  116       -1.819430   1.000000
  117       -1.783506   1.000000
  118       -1.753069   1.000000
  119       -1.652850   1.000000
  120       -1.606833   1.000000
  121       -1.286312   1.000000
  122       -1.217797   1.000000
  123       -1.079100   1.000000
  124       -0.988892   1.000000
  125       -0.916434   1.000000
  126       -0.821170   1.000000
  127       -0.792391   1.000000
  128       -0.704453   1.000000
  129       -0.682042   1.000000
  130       -0.419149   1.000000
  131       -0.391547   1.000000
  132       -0.313737   1.000000
  133       -0.119947   1.000000
  134       -0.073295   1.000000
  135        0.021990   1.000034
  136        0.099821   1.001829
  137        0.139477   1.008042
  138        0.171786   1.019645
  139        0.188623   1.027351
  140        0.212608   1.035200
  141        0.221420   1.035111
  142        0.278562   0.923280
  143        0.440444  -0.026279
  144        0.456538  -0.035005
  145        0.472663  -0.033888
  146        0.586522  -0.001309
  147        0.645876  -0.000064
  148        0.686854  -0.000005
  149        0.838515  -0.000000
  150        0.869602  -0.000000
  151        0.961184  -0.000000
  152        0.975530  -0.000000
  153        0.992191  -0.000000
  154        1.100917  -0.000000
  155        1.146301  -0.000000
  156        1.161657  -0.000000
  157        1.201130  -0.000000
  158        1.246249  -0.000000
  159        1.311976  -0.000000
  160        1.321460  -0.000000
  161        1.327038  -0.000000
  162        1.367056  -0.000000
  163        1.379198  -0.000000
  164        1.388685  -0.000000
  165        1.493322  -0.000000
  166        1.546653  -0.000000
  167        1.570265  -0.000000
  168        1.613947  -0.000000
  169        1.650362  -0.000000
  170        1.661291  -0.000000
  171        1.676940  -0.000000
  172        1.713734  -0.000000
  173        1.719195  -0.000000
  174        1.767324  -0.000000
  175        1.786457  -0.000000
  176        1.809199  -0.000000
  177        1.842066  -0.000000
  178        1.880758  -0.000000
  179        1.890863  -0.000000
  180        1.936501  -0.000000
  181        1.969165  -0.000000
  182        2.074858  -0.000000
  183        2.126582  -0.000000
  184        2.324153  -0.000000

  0.2000000E+00  0.1111111E+00  0.1262379E-14  0.4444444E-01
    1      -13.960679   1.000000
    2      -13.261289   1.000000
    3      -12.731955   1.000000
    4      -12.385217   1.000000
    5      -12.077749   1.000000
    6      -11.978536   1.000000
    7      -11.776990   1.000000
    8      -11.451453   1.000000
    9      -11.382198   1.000000
   10      -11.254938   1.000000
   11      -11.218509   1.000000
   12      -11.165138   1.000000
   13      -11.039381   1.000000
   14      -10.855483   1.000000
   15      -10.661406   1.000000
   16      -10.643753   1.000000
   17      -10.576813   1.000000
   18       -9.913036   1.000000
   19       -9.806420   1.000000
   20       -9.745831   1.000000
   21       -9.657147   1.000000
   22       -9.564495   1.000000
   23       -9.506716   1.000000
   24       -9.476285   1.000000
   25       -9.160014   1.000000
   26       -8.915245   1.000000
   27       -8.490967   1.000000
   28       -8.436842   1.000000
   29       -8.314914   1.000000
   30       -8.255511   1.000000
   31       -8.223070   1.000000
   32       -8.044381   1.000000
   33       -7.777926   1.000000
   34       -7.689442   1.000000
   35       -7.510442   1.000000
   36       -7.423036   1.000000
   37       -7.220715   1.000000
   38       -7.209258   1.000000
   39       -7.102312   1.000000
   40       -6.926885   1.000000
   41       -6.815132   1.000000
   42       -6.759006   1.000000
   43       -6.735814   1.000000
   44       -6.722056   1.000000
   45       -6.623777   1.000000
   46       -6.587526   1.000000
   47       -6.333422   1.000000
   48       -6.244979   1.000000
   49       -6.128480   1.000000
   50       -6.066605   1.000000
   51       -5.942779   1.000000
   52       -5.871104   1.000000
   53       -5.789246   1.000000
   54       -5.754507   1.000000
   55       -5.636731   1.000000
   56       -5.613460   1.000000
   57       -5.518875   1.000000
   58       -5.444097   1.000000
   59       -5.411113   1.000000
   60       -5.331394   1.000000
   61       -5.279157   1.000000
   62       -5.219922   1.000000
   63       -5.004233   1.000000
   64       -4.931178   1.000000
   65       -4.833334   1.000000
   66       -4.798124   1.000000
   67       -4.715078   1.000000
   68       -4.695831   1.000000
   69       -4.615040   1.000000
   70       -4.488423   1.000000
   71       -4.453504   1.000000
   72       -4.360724   1.000000
   73       -4.324447   1.000000
   74       -4.302676   1.000000
   75       -4.278175   1.000000
   76       -4.246522   1.000000
   77       -4.220376   1.000000
   78       -4.198785   1.000000
   79       -4.145312   1.000000
   80       -4.133533   1.000000
   81       -4.093470   1.000000
   82       -4.027021   1.000000
   83       -3.950033   1.000000
   84       -3.882364   1.000000
   85       -3.831416   1.000000
   86       -3.808189   1.000000
   87       -3.774784   1.000000
   88       -3.752098   1.000000
   89       -3.650069   1.000000
   90       -3.600902   1.000000
   91       -3.572582   1.000000
   92       -3.558559   1.000000
   93       -3.354388   1.000000
   94       -3.233522   1.000000
   95       -3.133887   1.000000
   96       -3.107838   1.000000
   97       -3.054729   1.000000
   98       -2.952762   1.000000
   99       -2.891903   1.000000
  100       -2.871339   1.000000
  101       -2.792880   1.000000
  102       -2.533086   1.000000
  103       -2.495170   1.000000
  104       -2.452974   1.000000
  105       -2.383843   1.000000
  106       -2.351595   1.000000
  107       -2.323952   1.000000
  108       -2.232726   1.000000
  109       -2.167424   1.000000
  110       -2.136738   1.000000
  111       -2.080914   1.000000
  112       -2.013171   1.000000
  113       -1.975575   1.000000
  114       -1.915297   1.000000
  115       -1.900256   1.000000
  116       -1.821938   1.000000
  117       -1.729332   1.000000
  118       -1.680449   1.000000
  119       -1.632992   1.000000
  120       -1.514963   1.000000
  121       -1.323765   1.000000
  122       -1.213110   1.000000
  123       -1.107120   1.000000
  124       -1.063655   1.000000
  125       -1.013706   1.000000
  126       -0.923625   1.000000
  127       -0.885871   1.000000
  128       -0.802061   1.000000
  129       -0.588690   1.000000
  130       -0.534704   1.000000
  131       -0.362585   1.000000
  132       -0.297344   1.000000
  133       -0.158596   1.000000
  134       -0.134439   1.000000
  135       -0.086319   1.000000
  136       -0.051527   1.000000
  137        0.063632   1.000341
  138        0.147568   1.010348
  139        0.192366   1.028997
  140        0.269520   0.959088
  141        0.349462   0.414451
  142        0.387219   0.141521
  143        0.401192   0.071658
  144        0.484514  -0.029721
  145        0.502765  -0.021470
  146        0.587941  -0.001230
  147        0.731076  -0.000000
  148        0.746663  -0.000000
  149        0.777390  -0.000000
  150        0.862438  -0.000000
  151        0.923692  -0.000000
  152        1.013729  -0.000000
  153        1.094320  -0.000000
  154        1.165712  -0.000000
  155        1.198766  -0.000000
  156        1.220530  -0.000000
  157        1.243376  -0.000000