 running on   72 total cores
 distrk:  each k-point on   72 cores,    1 groups
 distr:  one band on    9 cores,    8 groups
 using from now: INCAR     
 vasp.5.4.4.18Apr17-6-g9f103f2a35 (build Dec  7 2020 12:43:57) complex           
 POSCAR found type information on POSCAR  Mo V  B  H 
 POSCAR found :  4 types and      73 ions
 scaLAPACK will be used
 LDA part: xc-table for Pade appr. of Perdew
 POSCAR, INCAR and KPOINTS ok, starting setup
 resort distribution
 resort distribution
 resort distribution
 resort distribution
 resort distribution
 resort distribution
 resort distribution
 resort distribution
 resort distribution
 resort distribution
 resort distribution
 resort distribution
 resort distribution
 resort distribution
 resort distribution
 resort distribution
 resort distribution
 resort distribution
 resort distribution
 resort distribution
 resort distribution
 resort distribution
 resort distribution
 resort distribution
 resort distribution
 resort distribution
 resort distribution
 resort distribution
 resort distribution
 resort distribution
 resort distribution
 resort distribution
 resort distribution
 resort distribution
 resort distribution
 resort distribution
 resort distribution
 resort distribution
 resort distribution
 resort distribution
 resort distribution
 resort distribution
 resort distribution
 resort distribution
 resort distribution
 resort distribution
 resort distribution
 resort distribution
 resort distribution
 resort distribution
 resort distribution
 resort distribution
 resort distribution
 resort distribution
 resort distribution
 resort distribution
 resort distribution
 resort distribution
 resort distribution
 resort distribution
 resort distribution
 resort distribution
 resort distribution
 resort distribution
 resort distribution
 resort distribution
 resort distribution
 resort distribution
 resort distribution
 resort distribution
 resort distribution
 resort distribution
 FFT: planning ...
 WAVECAR not read
 augmentation electrons   283.06512477972501     
 soft         electrons   0.0000000000000000     
 augmentation electrons   283.06512477972501     
 soft         electrons   0.0000000000000000     
 augmentation electrons   283.06512477972501     
 soft         electrons   0.0000000000000000     
 augmentation electrons   283.06512477972501     
 soft         electrons   0.0000000000000000     
 augmentation electrons   283.06512477972501     
 soft         electrons   0.0000000000000000     
 augmentation electrons   283.06512477972501     
 soft         electrons   0.0000000000000000     
 augmentation electrons   283.06512477972501     
 soft         electrons   0.0000000000000000     
 augmentation electrons   283.06512477972501     
 soft         electrons   0.0000000000000000     
 augmentation electrons   283.06512477972501     
 soft         electrons   0.0000000000000000     
 augmentation electrons   283.06512477972501     
 soft         electrons   0.0000000000000000     
 augmentation electrons   283.06512477972501     
 soft         electrons   0.0000000000000000     
 augmentation electrons   283.06512477972501     
 soft         electrons   0.0000000000000000     
 augmentation electrons   283.06512477972501     
 soft         electrons   0.0000000000000000     
 augmentation electrons   283.06512477972501     
 soft         electrons   0.0000000000000000     
 augmentation electrons   283.06512477972501     
 soft         electrons   0.0000000000000000     
 augmentation electrons   283.06512477972501     
 soft         electrons   0.0000000000000000     
 augmentation electrons   283.06512477972501     
 soft         electrons   0.0000000000000000     
 augmentation electrons   283.06512477972501     
 soft         electrons   0.0000000000000000     
 augmentation electrons   283.06512477972501     
 soft         electrons   0.0000000000000000     
 augmentation electrons   283.06512477972501     
 soft         electrons   0.0000000000000000     
 augmentation electrons   283.06512477972501     
 soft         electrons   0.0000000000000000     
 augmentation electrons   283.06512477972501     
 soft         electrons   0.0000000000000000     
 augmentation electrons   283.06512477972501     
 soft         electrons   0.0000000000000000     
 augmentation electrons   283.06512477972501     
 soft         electrons   0.0000000000000000     
 augmentation electrons   283.06512477972501     
 soft         electrons   0.0000000000000000     
 augmentation electrons   283.06512477972501     
 soft         electrons   0.0000000000000000     
 augmentation electrons   283.06512477972501     
 soft         electrons   0.0000000000000000     
 augmentation electrons   283.06512477972501     
 soft         electrons   0.0000000000000000     
 augmentation electrons   283.06512477972501     
 soft         electrons   0.0000000000000000     
 augmentation electrons   283.06512477972501     
 soft         electrons   0.0000000000000000     
 augmentation electrons   283.06512477972501     
 soft         electrons   0.0000000000000000     
 augmentation electrons   283.06512477972501     
 soft         electrons   0.0000000000000000     
 augmentation electrons   283.06512477972501     
 soft         electrons   0.0000000000000000     
 augmentation electrons   283.06512477972501     
 soft         electrons   0.0000000000000000     
 augmentation electrons   283.06512477972501     
 soft         electrons   0.0000000000000000     
 augmentation electrons   283.06512477972501     
 soft         electrons   0.0000000000000000     
 augmentation electrons   283.06512477972501     
 soft         electrons   0.0000000000000000     
 augmentation electrons   283.06512477972501     
 soft         electrons   0.0000000000000000     
 augmentation electrons   283.06512477972501     
 soft         electrons   0.0000000000000000     
 augmentation electrons   283.06512477972501     
 soft         electrons   0.0000000000000000     
 augmentation electrons   283.06512477972501     
 soft         electrons   0.0000000000000000     
 augmentation electrons   283.06512477972501     
 soft         electrons   0.0000000000000000     
 augmentation electrons   283.06512477972501     
 soft         electrons   0.0000000000000000     
 augmentation electrons   283.06512477972501     
 soft         electrons   0.0000000000000000     
 augmentation electrons   283.06512477972501     
 soft         electrons   0.0000000000000000     
 augmentation electrons   283.06512477972501     
 soft         electrons   0.0000000000000000     
 augmentation electrons   283.06512477972501     
 soft         electrons   0.0000000000000000     
 augmentation electrons   283.06512477972501     
 soft         electrons   0.0000000000000000     
 augmentation electrons   283.06512477972501     
 soft         electrons   0.0000000000000000     
 augmentation electrons   283.06512477972501     
 soft         electrons   0.0000000000000000     
 augmentation electrons   283.06512477972501     
 soft         electrons   0.0000000000000000     
 augmentation electrons   283.06512477972501     
 soft         electrons   0.0000000000000000     
 augmentation electrons   283.06512477972501     
 soft         electrons   0.0000000000000000     
 augmentation electrons   283.06512477972501     
 soft         electrons   0.0000000000000000     
 augmentation electrons   283.06512477972501     
 soft         electrons   0.0000000000000000     
 augmentation electrons   283.06512477972501     
 soft         electrons   0.0000000000000000     
 augmentation electrons   283.06512477972501     
 soft         electrons   0.0000000000000000     
 augmentation electrons   283.06512477972501     
 soft         electrons   0.0000000000000000     
 augmentation electrons   283.06512477972501     
 soft         electrons   0.0000000000000000     
 augmentation electrons   283.06512477972501     
 soft         electrons   0.0000000000000000     
 augmentation electrons   283.06512477972501     
 soft         electrons   0.0000000000000000     
 augmentation electrons   283.06512477972501     
 soft         electrons   0.0000000000000000     
 augmentation electrons   283.06512477972501     
 soft         electrons   0.0000000000000000     
 augmentation electrons   283.06512477972501     
 soft         electrons   0.0000000000000000     
 augmentation electrons   283.06512477972501     
 soft         electrons   0.0000000000000000     
 augmentation electrons   283.06512477972501     
 soft         electrons   0.0000000000000000     
 augmentation electrons   283.06512477972501     
 soft         electrons   0.0000000000000000     
 augmentation electrons   283.06512477972501     
 soft         electrons   0.0000000000000000     
 augmentation electrons   283.06512477972501     
 soft         electrons   0.0000000000000000     
 augmentation electrons   283.06512477972501     
 soft         electrons   0.0000000000000000     
 augmentation electrons   283.06512477972501     
 soft         electrons   0.0000000000000000     
 total        electrons   283.06512477972501     
 total        electrons   283.06512477972501     
 total        electrons   283.06512477972501     
 total        electrons   283.06512477972501     
 total        electrons   283.06512477972501     
 total        electrons   283.06512477972501     
 total        electrons   283.06512477972501     
 total        electrons   283.06512477972501     
 total        electrons   283.06512477972501     
 total        electrons   283.06512477972501     
 total        electrons   283.06512477972501     
 augmentation electrons   283.06512477972501     
 soft         electrons   0.0000000000000000     
 total        electrons   283.06512477972501     
 total        electrons   283.06512477972501     
 total        electrons   283.06512477972501     
 total        electrons   283.06512477972501     
 total        electrons   283.06512477972501     
 total        electrons   283.06512477972501     
 total        electrons   283.06512477972501     
 total        electrons   283.06512477972501     
 total        electrons   283.06512477972501     
 total        electrons   283.06512477972501     
 total        electrons   283.06512477972501     
 total        electrons   283.06512477972501     
 total        electrons   283.06512477972501     
 total        electrons   283.06512477972501     
 total        electrons   283.06512477972501     
 total        electrons   283.06512477972501     
 total        electrons   283.06512477972501     
 total        electrons   283.06512477972501     
 total        electrons   283.06512477972501     
 total        electrons   283.06512477972501     
 total        electrons   283.06512477972501     
 total        electrons   283.06512477972501     
 total        electrons   283.06512477972501     
 total        electrons   283.06512477972501     
 total        electrons   283.06512477972501     
 total        electrons   283.06512477972501     
 total        electrons   283.06512477972501     
 total        electrons   283.06512477972501     
 total        electrons   283.06512477972501     
 total        electrons   283.06512477972501     
 total        electrons   283.06512477972501     
 total        electrons   283.06512477972501     
 total        electrons   283.06512477972501     
 total        electrons   283.06512477972501     
 total        electrons   283.06512477972501     
 total        electrons   283.06512477972501     
 total        electrons   283.06512477972501     
 total        electrons   283.06512477972501     
 total        electrons   283.06512477972501     
 total        electrons   283.06512477972501     
 total        electrons   283.06512477972501     
 total        electrons   283.06512477972501     
 total        electrons   283.06512477972501     
 total        electrons   283.06512477972501     
 total        electrons   283.06512477972501     
 total        electrons   283.06512477972501     
 total        electrons   283.06512477972501     
 total        electrons   283.06512477972501     
 total        electrons   283.06512477972501     
 total        electrons   283.06512477972501     
 total        electrons   283.06512477972501     
 total        electrons   283.06512477972501     
 total        electrons   283.06512477972501     
 total        electrons   283.06512477972501     
 total        electrons   283.06512477972501     
 total        electrons   283.06512477972501     
 total        electrons   283.06512477972501     
 total        electrons   283.06512477972501     
 total        electrons   283.06512477972501     
 total        electrons   283.06512477972501     
 total        electrons   283.06512477972501     
 augmentation electrons   1284.9953543078657     
 soft         electrons   0.0000000000000000     
 augmentation electrons   1284.9953543078657     
 soft         electrons   0.0000000000000000     
 augmentation electrons   1284.9953543078657     
 soft         electrons   0.0000000000000000     
 augmentation electrons   1284.9953543078657     
 soft         electrons   0.0000000000000000     
 augmentation electrons   1284.9953543078657     
 soft         electrons   0.0000000000000000     
 augmentation electrons   1284.9953543078657     
 soft         electrons   0.0000000000000000     
 augmentation electrons   1284.9953543078657     
 soft         electrons   0.0000000000000000     
 augmentation electrons   1284.9953543078657     
 soft         electrons   0.0000000000000000     
 augmentation electrons   1284.9953543078657     
 soft         electrons   0.0000000000000000     
 augmentation electrons   1284.9953543078657     
 soft         electrons   0.0000000000000000     
 augmentation electrons   1284.9953543078657     
 soft         electrons   0.0000000000000000     
 augmentation electrons   1284.9953543078657     
 soft         electrons   0.0000000000000000     
 augmentation electrons   1284.9953543078657     
 soft         electrons   0.0000000000000000     
 augmentation electrons   1284.9953543078657     
 soft         electrons   0.0000000000000000     
 augmentation electrons   1284.9953543078657     
 soft         electrons   0.0000000000000000     
 augmentation electrons   1284.9953543078657     
 soft         electrons   0.0000000000000000     
 augmentation electrons   1284.9953543078657     
 soft         electrons   0.0000000000000000     
 augmentation electrons   1284.9953543078657     
 soft         electrons   0.0000000000000000     
 augmentation electrons   1284.9953543078657     
 soft         electrons   0.0000000000000000     
 augmentation electrons   1284.9953543078657     
 soft         electrons   0.0000000000000000     
 augmentation electrons   1284.9953543078657     
 soft         electrons   0.0000000000000000     
 augmentation electrons   1284.9953543078657     
 soft         electrons   0.0000000000000000     
 augmentation electrons   1284.9953543078657     
 soft         electrons   0.0000000000000000     
 augmentation electrons   1284.9953543078657     
 soft         electrons   0.0000000000000000     
 augmentation electrons   1284.9953543078657     
 soft         electrons   0.0000000000000000     
 augmentation electrons   1284.9953543078657     
 soft         electrons   0.0000000000000000     
 augmentation electrons   1284.9953543078657     
 soft         electrons   0.0000000000000000     
 augmentation electrons   1284.9953543078657     
 soft         electrons   0.0000000000000000     
 augmentation electrons   1284.9953543078657     
 soft         electrons   0.0000000000000000     
 augmentation electrons   1284.9953543078657     
 soft         electrons   0.0000000000000000     
 augmentation electrons   1284.9953543078657     
 soft         electrons   0.0000000000000000     
 augmentation electrons   1284.9953543078657     
 soft         electrons   0.0000000000000000     
 augmentation electrons   1284.9953543078657     
 soft         electrons   0.0000000000000000     
 augmentation electrons   1284.9953543078657     
 augmentation electrons   1284.9953543078657     
 soft         electrons   0.0000000000000000     
 augmentation electrons   1284.9953543078657     
 soft         electrons   0.0000000000000000     
 augmentation electrons   1284.9953543078657     
 soft         electrons   0.0000000000000000     
 augmentation electrons   1284.9953543078657     
 soft         electrons   0.0000000000000000     
 augmentation electrons   1284.9953543078657     
 soft         electrons   0.0000000000000000     
 augmentation electrons   1284.9953543078657     
 soft         electrons   0.0000000000000000     
 augmentation electrons   1284.9953543078657     
 soft         electrons   0.0000000000000000     
 augmentation electrons   1284.9953543078657     
 soft         electrons   0.0000000000000000     
 augmentation electrons   1284.9953543078657     
 soft         electrons   0.0000000000000000     
 augmentation electrons   1284.9953543078657     
 soft         electrons   0.0000000000000000     
 augmentation electrons   1284.9953543078657     
 soft         electrons   0.0000000000000000     
 augmentation electrons   1284.9953543078657     
 soft         electrons   0.0000000000000000     
 augmentation electrons   1284.9953543078657     
 soft         electrons   0.0000000000000000     
 augmentation electrons   1284.9953543078657     
 soft         electrons   0.0000000000000000     
 augmentation electrons   1284.9953543078657     
 soft         electrons   0.0000000000000000     
 augmentation electrons   1284.9953543078657     
 soft         electrons   0.0000000000000000     
 augmentation electrons   1284.9953543078657     
 soft         electrons   0.0000000000000000     
 augmentation electrons   1284.9953543078657     
 soft         electrons   0.0000000000000000     
 augmentation electrons   1284.9953543078657     
 soft         electrons   0.0000000000000000     
 augmentation electrons   1284.9953543078657     
 soft         electrons   0.0000000000000000     
 augmentation electrons   1284.9953543078657     
 soft         electrons   0.0000000000000000     
 augmentation electrons   1284.9953543078657     
 soft         electrons   0.0000000000000000     
 augmentation electrons   1284.9953543078657     
 soft         electrons   0.0000000000000000     
 augmentation electrons   1284.9953543078657     
 soft         electrons   0.0000000000000000     
 augmentation electrons   1284.9953543078657     
 soft         electrons   0.0000000000000000     
 augmentation electrons   1284.9953543078657     
 soft         electrons   0.0000000000000000     
 augmentation electrons   1284.9953543078657     
 soft         electrons   0.0000000000000000     
 augmentation electrons   1284.9953543078657     
 soft         electrons   0.0000000000000000     
 augmentation electrons   1284.9953543078657     
 soft         electrons   0.0000000000000000     
 augmentation electrons   1284.9953543078657     
 soft         electrons   0.0000000000000000     
 augmentation electrons   1284.9953543078657     
 soft         electrons   0.0000000000000000     
 augmentation electrons   1284.9953543078657     
 soft         electrons   0.0000000000000000     
 augmentation electrons   1284.9953543078657     
 soft         electrons   0.0000000000000000     
 augmentation electrons   1284.9953543078657     
 soft         electrons   0.0000000000000000     
 augmentation electrons   1284.9953543078657     
 soft         electrons   0.0000000000000000     
 augmentation electrons   1284.9953543078657     
 soft         electrons   0.0000000000000000     
 augmentation electrons   1284.9953543078657     
 soft         electrons   0.0000000000000000     
 augmentation electrons   1284.9953543078657     
 soft         electrons   0.0000000000000000     
 soft         electrons   0.0000000000000000     
 total        electrons   1284.9953543078657     
 total        electrons   1284.9953543078657     
 total        electrons   1284.9953543078657     
 total        electrons   1284.9953543078657     
 total        electrons   1284.9953543078657     
 total        electrons   1284.9953543078657     
 total        electrons   1284.9953543078657     
 total        electrons   1284.9953543078657     
 total        electrons   1284.9953543078657     
 total        electrons   1284.9953543078657     
 total        electrons   1284.9953543078657     
 total        electrons   1284.9953543078657     
 total        electrons   1284.9953543078657     
 total        electrons   1284.9953543078657     
 total        electrons   1284.9953543078657     
 total        electrons   1284.9953543078657     
 total        electrons   1284.9953543078657     
 total        electrons   1284.9953543078657     
 total        electrons   1284.9953543078657     
 total        electrons   1284.9953543078657     
 total        electrons   1284.9953543078657     
 total        electrons   1284.9953543078657     
 total        electrons   1284.9953543078657     
 total        electrons   1284.9953543078657     
 total        electrons   1284.9953543078657     
 total        electrons   1284.9953543078657     
 total        electrons   1284.9953543078657     
 total        electrons   1284.9953543078657     
 total        electrons   1284.9953543078657     
 total        electrons   1284.9953543078657     
 total        electrons   1284.9953543078657     
 total        electrons   1284.9953543078657     
 total        electrons   1284.9953543078657     
 total        electrons   1284.9953543078657     
 total        electrons   1284.9953543078657     
 total        electrons   1284.9953543078657     
 total        electrons   1284.9953543078657     
 total        electrons   1284.9953543078657     
 total        electrons   1284.9953543078657     
 total        electrons   1284.9953543078657     
 total        electrons   1284.9953543078657     
 total        electrons   1284.9953543078657     
 total        electrons   1284.9953543078657     
 total        electrons   1284.9953543078657     
 total        electrons   1284.9953543078657     
 total        electrons   1284.9953543078657     
 total        electrons   1284.9953543078657     
 total        electrons   1284.9953543078657     
 total        electrons   1284.9953543078657     
 total        electrons   1284.9953543078657     
 total        electrons   1284.9953543078657     
 total        electrons   1284.9953543078657     
 total        electrons   1284.9953543078657     
 total        electrons   1284.9953543078657     
 total        electrons   1284.9953543078657     
 total        electrons   1284.9953543078657     
 total        electrons   1284.9953543078657     
 total        electrons   1284.9953543078657     
 total        electrons   1284.9953543078657     
 total        electrons   1284.9953543078657     
 total        electrons   1284.9953543078657     
 total        electrons   1284.9953543078657     
 total        electrons   1284.9953543078657     
 total        electrons   1284.9953543078657     
 total        electrons   1284.9953543078657     
 total        electrons   1284.9953543078657     
 total        electrons   1284.9953543078657     
 total        electrons   1284.9953543078657     
 total        electrons   1284.9953543078657     
 total        electrons   1284.9953543078657     
 total        electrons   1284.9953543078657     
 total        electrons   1284.9953543078657     
 entering main loop
       N       E                     dE             d eps       ncg     rms          rms(c)
DAV:   1     0.245113530005E+04    0.24511E+04   -0.10305E+05  8464   0.127E+03
DAV:   2    -0.212831210222E+03   -0.26640E+04   -0.24673E+04  9640   0.313E+02
DAV:   3    -0.651111951558E+03   -0.43828E+03   -0.41632E+03 11968   0.146E+02
DAV:   4    -0.688363571563E+03   -0.37252E+02   -0.35617E+02 13696   0.466E+01
DAV:   5    -0.690750214859E+03   -0.23866E+01   -0.23028E+01 14440   0.111E+01    0.147E+02
RMM:   6    -0.638689993648E+03    0.52060E+02   -0.11267E+03 11548   0.875E+01    0.719E+01
RMM:   7    -0.737194991504E+03   -0.98505E+02   -0.36769E+02 11740   0.387E+01    0.550E+01
RMM:   8    -0.637756019839E+03    0.99439E+02   -0.14990E+02 11244   0.256E+01    0.403E+01
RMM:   9    -0.602062144792E+03    0.35694E+02   -0.38314E+01 11039   0.154E+01    0.280E+01
RMM:  10    -0.588671190348E+03    0.13391E+02   -0.28237E+01  9014   0.160E+01    0.203E+01
RMM:  11    -0.587354965115E+03    0.13162E+01   -0.76258E+00 10180   0.728E+00    0.165E+01
RMM:  12    -0.587395673876E+03   -0.40709E-01   -0.25886E+00 11551   0.206E+00    0.149E+01
RMM:  13    -0.587195435878E+03    0.20024E+00   -0.74491E-01 10369   0.199E+00    0.133E+01
RMM:  14    -0.587358337745E+03   -0.16290E+00   -0.25836E+00  9151   0.506E+00    0.101E+01
RMM:  15    -0.586576705705E+03    0.78163E+00   -0.15642E+00  9099   0.417E+00    0.551E+00
RMM:  16    -0.586277308487E+03    0.29940E+00   -0.11549E+00  9335   0.293E+00    0.394E+00
RMM:  17    -0.586126979127E+03    0.15033E+00   -0.12069E+00 11440   0.169E+00    0.200E+00
RMM:  18    -0.586145431039E+03   -0.18452E-01   -0.23847E-01 11581   0.835E-01    0.155E+00
RMM:  19    -0.586139833906E+03    0.55971E-02   -0.18388E-01  8962   0.116E+00    0.126E+00
RMM:  20    -0.586132656475E+03    0.71774E-02   -0.71918E-02 10745   0.563E-01    0.958E-01
RMM:  21    -0.586122474815E+03    0.10182E-01   -0.17617E-02  8791   0.393E-01    0.450E-01
RMM:  22    -0.586123015418E+03   -0.54060E-03   -0.11754E-02 10587   0.223E-01    0.405E-01
RMM:  23    -0.586122557181E+03    0.45824E-03   -0.81830E-03  8911   0.257E-01    0.195E-01
RMM:  24    -0.586123661015E+03   -0.11038E-02   -0.64691E-03 11255   0.131E-01    0.238E-01
RMM:  25    -0.586123808853E+03   -0.14784E-03   -0.90669E-04  8816   0.861E-02    0.102E-01
RMM:  26    -0.586124397794E+03   -0.58894E-03   -0.72787E-04 11038   0.324E-02    0.102E-01
RMM:  27    -0.586125207485E+03   -0.80969E-03   -0.62207E-04  9714   0.624E-02    0.496E-02
RMM:  28    -0.586125930285E+03   -0.72280E-03   -0.55576E-04 11148   0.380E-02    0.595E-02
RMM:  29    -0.586126187389E+03   -0.25710E-03   -0.15277E-04  8913   0.356E-02    0.214E-02
RMM:  30    -0.586126339586E+03   -0.15220E-03   -0.95433E-05 10261   0.136E-02    0.166E-02
RMM:  31    -0.586126415879E+03   -0.76292E-04   -0.33692E-05  8073   0.120E-02    0.162E-02
RMM:  32    -0.586126510322E+03   -0.94443E-04   -0.34172E-05  8515   0.168E-02    0.187E-02
RMM:  33    -0.586126591281E+03   -0.80959E-04   -0.14132E-05  6824   0.109E-02    0.718E-03
RMM:  34    -0.586126744201E+03   -0.15292E-03   -0.29071E-05  7757   0.174E-02    0.292E-02
RMM:  35    -0.586126861920E+03   -0.11772E-03   -0.23131E-05  7479   0.176E-02    0.837E-03
RMM:  36    -0.586126923661E+03   -0.61740E-04   -0.93395E-06  6482   0.445E-03    0.368E-03
RMM:  37    -0.586126965146E+03   -0.41485E-04   -0.43525E-06  6247   0.408E-03    0.467E-03
RMM:  38    -0.586126979826E+03   -0.14680E-04   -0.24611E-06  5739   0.567E-03    0.619E-03
RMM:  39    -0.586126999944E+03   -0.20118E-04   -0.26878E-06  5716   0.459E-03    0.203E-03
RMM:  40    -0.586127005902E+03   -0.59585E-05   -0.10139E-06  5193   0.177E-03    0.763E-04
RMM:  41    -0.586127007559E+03   -0.16567E-05   -0.31798E-07  4684   0.166E-03    0.654E-04
RMM:  42    -0.586127008933E+03   -0.13735E-05   -0.24184E-07  3723   0.120E-03    0.609E-04
RMM:  43    -0.586127009884E+03   -0.95141E-06   -0.17229E-07  3649   0.108E-03
   1 F= -.58612701E+03 E0= -.58612721E+03  d E =-.586127E+03
 curvature:   0.00 expect dE= 0.000E+00 dE for cont linesearch  0.000E+00
 trial: gam= 0.00000 g(F)=  0.691E-01 g(S)=  0.000E+00 ort = 0.000E+00 (trialstep = 0.100E+01)
 search vector abs. value=  0.691E-01
 bond charge predicted
       N       E                     dE             d eps       ncg     rms          rms(c)
DAV:   1    -0.586189203459E+03   -0.62195E-01   -0.11033E+00  9416   0.196E+00    0.357E-01
RMM:   2    -0.586191781467E+03   -0.25780E-02   -0.17459E-02  9748   0.395E-01    0.447E-01
RMM:   3    -0.586191615619E+03    0.16585E-03   -0.57778E-03 10165   0.234E-01    0.371E-01
RMM:   4    -0.586194753818E+03   -0.31382E-02   -0.71361E-03 10940   0.177E-01    0.587E-01
RMM:   5    -0.586190165138E+03    0.45887E-02   -0.44299E-03  9097   0.208E-01    0.146E-01
RMM:   6    -0.586190064817E+03    0.10032E-03   -0.17306E-03 10638   0.970E-02    0.956E-02
RMM:   7    -0.586189986742E+03    0.78074E-04   -0.54448E-04  9507   0.595E-02    0.574E-02
RMM:   8    -0.586189953388E+03    0.33355E-04   -0.16712E-04 10091   0.285E-02    0.295E-02
RMM:   9    -0.586189945373E+03    0.80149E-05   -0.52749E-05  9487   0.164E-02    0.146E-02
RMM:  10    -0.586189944638E+03    0.73426E-06   -0.25209E-05  9112   0.103E-02    0.967E-03
RMM:  11    -0.586189944133E+03    0.50587E-06   -0.70230E-06  6527   0.700E-03
   2 F= -.58618994E+03 E0= -.58619020E+03  d E =-.629342E-01
 ZBRENT: can't locate minimum, use default step
 trial-energy change:   -0.062934  1 .order   -0.062992   -0.069065   -0.056919
 step:   4.0000(harm=  5.6864)  dis= 0.17022  next Energy=  -586.323376 (dE=-0.196E+00)
 bond charge predicted
       N       E                     dE             d eps       ncg     rms          rms(c)
DAV:   1    -0.586305452214E+03   -0.11551E+00   -0.94890E+00  8864   0.573E+00    0.969E-01
RMM:   2    -0.586326089565E+03   -0.20637E-01   -0.13499E-01  9295   0.115E+00    0.127E+00
RMM:   3    -0.586322445316E+03    0.36442E-02   -0.41294E-02 10059   0.645E-01    0.979E-01
RMM:   4    -0.586347698645E+03   -0.25253E-01   -0.53377E-02 10873   0.490E-01    0.163E+00
RMM:   5    -0.586312461672E+03    0.35237E-01   -0.31973E-02  9082   0.557E-01    0.388E-01
RMM:   6    -0.586311923365E+03    0.53831E-03   -0.12766E-02 10555   0.268E-01    0.267E-01
RMM:   7    -0.586311302223E+03    0.62114E-03   -0.40693E-03  9484   0.163E-01    0.157E-01
RMM:   8    -0.586311067045E+03    0.23518E-03   -0.13011E-03  9958   0.807E-02    0.848E-02
RMM:   9    -0.586310996787E+03    0.70258E-04   -0.40286E-04 10252   0.452E-02    0.386E-02
RMM:  10    -0.586310998171E+03   -0.13834E-05   -0.19494E-04 11140   0.269E-02    0.282E-02
RMM:  11    -0.586310993851E+03    0.43196E-05   -0.53719E-05  9392   0.173E-02    0.192E-02
RMM:  12    -0.586310993970E+03   -0.11859E-06   -0.21954E-05  8399   0.984E-03    0.127E-02
RMM:  13    -0.586310998273E+03   -0.43034E-05   -0.12106E-05  7375   0.875E-03    0.126E-02
RMM:  14    -0.586310999482E+03   -0.12087E-05   -0.55409E-06  6301   0.808E-03    0.503E-03
RMM:  15    -0.586311003444E+03   -0.39627E-05   -0.26482E-06  5780   0.390E-03    0.291E-03
RMM:  16    -0.586311005764E+03   -0.23194E-05   -0.68673E-07  5148   0.302E-03    0.195E-03
RMM:  17    -0.586311008495E+03   -0.27316E-05   -0.50197E-07  5134   0.236E-03    0.235E-03
RMM:  18    -0.586311011272E+03   -0.27767E-05   -0.46683E-07  5114   0.233E-03    0.151E-03
RMM:  19    -0.586311015261E+03   -0.39891E-05   -0.50946E-07  5088   0.171E-03    0.113E-03
RMM:  20    -0.586311020142E+03   -0.48804E-05   -0.55316E-07  4997   0.168E-03    0.924E-04
RMM:  21    -0.586311022148E+03   -0.20061E-05   -0.29016E-07  4203   0.133E-03    0.630E-04
RMM:  22    -0.586311025970E+03   -0.38221E-05   -0.38639E-07  4126   0.119E-03    0.627E-04
RMM:  23    -0.586311027967E+03   -0.19968E-05   -0.25080E-07  4101   0.126E-03    0.347E-04
RMM:  24    -0.586311029511E+03   -0.15444E-05   -0.23005E-07  3354   0.926E-04    0.219E-04
RMM:  25    -0.586311030336E+03   -0.82548E-06   -0.13831E-07  3236   0.100E-03
   3 F= -.58631103E+03 E0= -.58631139E+03  d E =-.184020E+00
 curvature:  -2.48 expect dE=-0.280E-01 dE for cont linesearch -0.220E-01
 ZBRENT: increasing intervall
 opt :  10.0000  next Energy=  -586.266813 (dE=-0.140E+00)
 bond charge predicted
       N       E                     dE             d eps       ncg     rms          rms(c)
DAV:   1    -0.586262542156E+03    0.48487E-01   -0.32216E+01  8520   0.103E+01    0.145E+00
RMM:   2    -0.586323178892E+03   -0.60637E-01   -0.40892E-01  9159   0.201E+00    0.196E+00
RMM:   3    -0.586313454462E+03    0.97244E-02   -0.11081E-01 10193   0.101E+00    0.145E+00
RMM:   4    -0.586371603977E+03   -0.58150E-01   -0.12273E-01 10671   0.773E-01    0.247E+00
RMM:   5    -0.586292195308E+03    0.79409E-01   -0.66604E-02  9059   0.816E-01    0.538E-01
RMM:   6    -0.586292500755E+03   -0.30545E-03   -0.28951E-02 10456   0.408E-01    0.433E-01
RMM:   7    -0.586290605035E+03    0.18957E-02   -0.86514E-03  9204   0.251E-01    0.222E-01
RMM:   8    -0.586290229363E+03    0.37567E-03   -0.33333E-03  9935   0.122E-01    0.129E-01
RMM:   9    -0.586290083738E+03    0.14562E-03   -0.95950E-04 10158   0.668E-02    0.575E-02
RMM:  10    -0.586290099813E+03   -0.16075E-04   -0.41640E-04 11002   0.380E-02    0.429E-02
RMM:  11    -0.586290095306E+03    0.45071E-05   -0.12960E-04  9994   0.263E-02    0.300E-02
RMM:  12    -0.586290099125E+03   -0.38195E-05   -0.60281E-05 10292   0.164E-02    0.208E-02
RMM:  13    -0.586290106336E+03   -0.72111E-05   -0.27091E-05  8381   0.124E-02    0.179E-02
RMM:  14    -0.586290108426E+03   -0.20900E-05   -0.11092E-05  6802   0.101E-02    0.768E-03
RMM:  15    -0.586290117513E+03   -0.90867E-05   -0.75687E-06  6652   0.515E-03    0.442E-03
RMM:  16    -0.586290122278E+03   -0.47647E-05   -0.15100E-06  5479   0.350E-03    0.277E-03
RMM:  17    -0.586290128195E+03   -0.59168E-05   -0.94536E-07  5237   0.335E-03    0.375E-03
RMM:  18    -0.586290134658E+03   -0.64630E-05   -0.83985E-07  5253   0.319E-03    0.210E-03
RMM:  19    -0.586290141982E+03   -0.73242E-05   -0.77171E-07  5189   0.198E-03    0.129E-03
RMM:  20    -0.586290150586E+03   -0.86043E-05   -0.80084E-07  5121   0.188E-03    0.118E-03
RMM:  21    -0.586290156385E+03   -0.57986E-05   -0.57245E-07  4676   0.168E-03    0.103E-03
RMM:  22    -0.586290163151E+03   -0.67663E-05   -0.72910E-07  4598   0.160E-03    0.736E-04
RMM:  23    -0.586290165740E+03   -0.25894E-05   -0.34958E-07  4162   0.147E-03    0.391E-04
RMM:  24    -0.586290169095E+03   -0.33549E-05   -0.38890E-07  3984   0.112E-03    0.378E-04
RMM:  25    -0.586290170478E+03   -0.13823E-05   -0.19322E-07  3701   0.123E-03    0.230E-04
RMM:  26    -0.586290171618E+03   -0.11403E-05   -0.14125E-07  2881   0.766E-04    0.172E-04
RMM:  27    -0.586290172383E+03   -0.76525E-06   -0.93395E-08  2933   0.858E-04
   4 F= -.58629017E+03 E0= -.58629061E+03  d E =-.163162E+00
 curvature:   4.98 expect dE= 0.312E+00 dE for cont linesearch  0.727E-01
 ZBRENT: bracketing found
 ZBRENT: interpolating
 opt :   6.6287  next Energy=  -586.343593 (dE=-0.217E+00)
 bond charge predicted
       N       E                     dE             d eps       ncg     rms          rms(c)
DAV:   1    -0.586333571738E+03   -0.43400E-01   -0.11670E+01  8464   0.631E+00    0.788E-01
RMM:   2    -0.586350117472E+03   -0.16546E-01   -0.11916E-01  9104   0.106E+00    0.970E-01
RMM:   3    -0.586351804416E+03   -0.16869E-02   -0.36028E-02 10120   0.574E-01    0.870E-01
RMM:   4    -0.586364955354E+03   -0.13151E-01   -0.32461E-02 10754   0.388E-01    0.124E+00
RMM:   5    -0.586343438321E+03    0.21517E-01   -0.18547E-02  8977   0.431E-01    0.254E-01
RMM:   6    -0.586343882147E+03   -0.44383E-03   -0.85431E-03 10674   0.204E-01    0.236E-01
RMM:   7    -0.586343267998E+03    0.61415E-03   -0.22975E-03  8981   0.137E-01    0.118E-01
RMM:   8    -0.586343171694E+03    0.96305E-04   -0.98071E-04 10029   0.653E-02    0.655E-02
RMM:   9    -0.586343139457E+03    0.32237E-04   -0.24191E-04 10417   0.327E-02    0.276E-02
RMM:  10    -0.586343153926E+03   -0.14469E-04   -0.10090E-04 10692   0.191E-02    0.225E-02
RMM:  11    -0.586343160323E+03   -0.63972E-05   -0.33872E-05  8756   0.146E-02    0.176E-02
RMM:  12    -0.586343165632E+03   -0.53087E-05   -0.14152E-05  7660   0.915E-03    0.110E-02
RMM:  13    -0.586343172215E+03   -0.65831E-05   -0.73171E-06  6505   0.708E-03    0.874E-03
RMM:  14    -0.586343176164E+03   -0.39497E-05   -0.33137E-06  5897   0.619E-03    0.427E-03
RMM:  15    -0.586343182520E+03   -0.63553E-05   -0.18790E-06  5636   0.337E-03    0.247E-03
RMM:  16    -0.586343186271E+03   -0.37518E-05   -0.75088E-07  5205   0.259E-03    0.160E-03
RMM:  17    -0.586343190893E+03   -0.46213E-05   -0.62261E-07  5144   0.187E-03    0.125E-03
RMM:  18    -0.586343195173E+03   -0.42800E-05   -0.56762E-07  5021   0.182E-03    0.140E-03
RMM:  19    -0.586343197930E+03   -0.27573E-05   -0.44617E-07  4885   0.184E-03    0.106E-03
RMM:  20    -0.586343202699E+03   -0.47691E-05   -0.75787E-07  4737   0.152E-03    0.841E-04
RMM:  21    -0.586343204910E+03   -0.22112E-05   -0.38687E-07  4286   0.150E-03    0.621E-04
RMM:  22    -0.586343207835E+03   -0.29244E-05   -0.58601E-07  3819   0.111E-03    0.271E-04
RMM:  23    -0.586343209311E+03   -0.14766E-05   -0.36706E-07  3796   0.132E-03    0.426E-04
RMM:  24    -0.586343210013E+03   -0.70159E-06   -0.26223E-07  3352   0.979E-04
   5 F= -.58634321E+03 E0= -.58634362E+03  d E =-.216200E+00
 curvature:  -2.23 expect dE=-0.262E-01 dE for cont linesearch -0.312E-10
 trial: gam= 0.17030 g(F)=  0.118E-01 g(S)=  0.000E+00 ort =-0.984E-06 (trialstep = 0.213E+01)
 search vector abs. value=  0.138E-01
 bond charge predicted
       N       E                     dE             d eps       ncg     rms          rms(c)
DAV:   1    -0.586355111121E+03   -0.11902E-01   -0.10796E+00  8784   0.188E+00    0.370E-01
RMM:   2    -0.586353743507E+03    0.13676E-02   -0.18187E-02  9732   0.388E-01    0.254E-01
RMM:   3    -0.586358376651E+03   -0.46331E-02   -0.12556E-02 10092   0.322E-01    0.672E-01
RMM:   4    -0.586353877606E+03    0.44990E-02   -0.54483E-03  9525   0.242E-01    0.174E-01
RMM:   5    -0.586353635028E+03    0.24258E-03   -0.19814E-03 11253   0.711E-02    0.185E-01
RMM:   6    -0.586353291916E+03    0.34311E-03   -0.97563E-04  9205   0.914E-02    0.115E-01
RMM:   7    -0.586353105174E+03    0.18674E-03   -0.51459E-04 10496   0.583E-02    0.465E-02
RMM:   8    -0.586353111487E+03   -0.63125E-05   -0.22892E-04 10267   0.376E-02    0.491E-02
RMM:   9    -0.586353086635E+03    0.24852E-04   -0.72073E-05  9142   0.263E-02    0.197E-02
RMM:  10    -0.586353082359E+03    0.42763E-05   -0.25777E-05  8758   0.947E-03    0.925E-03
RMM:  11    -0.586353083827E+03   -0.14683E-05   -0.11347E-05  7452   0.100E-02    0.123E-02
RMM:  12    -0.586353082265E+03    0.15619E-05   -0.50645E-06  6433   0.763E-03    0.486E-03
RMM:  13    -0.586353082189E+03    0.75710E-07   -0.17219E-06  5504   0.410E-03
   6 F= -.58635308E+03 E0= -.58635345E+03  d E =-.987218E-02
 trial-energy change:   -0.009872  1 .order   -0.009173   -0.025000    0.006653
 step:   1.7222(harm=  1.6789)  dis= 0.04019  next Energy=  -586.353709 (dE=-0.105E-01)
 bond charge predicted
       N       E                     dE             d eps       ncg     rms          rms(c)
DAV:   1    -0.586353781938E+03   -0.69967E-03   -0.39223E-02  8824   0.358E-01    0.719E-02
RMM:   2    -0.586353730793E+03    0.51145E-04   -0.68910E-04  9536   0.805E-02    0.506E-02
RMM:   3    -0.586353894208E+03   -0.16342E-03   -0.48049E-04 10047   0.636E-02    0.128E-01
RMM:   4    -0.586353726008E+03    0.16820E-03   -0.21896E-04  9410   0.484E-02    0.337E-02
RMM:   5    -0.586353726594E+03   -0.58661E-06   -0.75777E-05 10561   0.183E-02    0.320E-02
RMM:   6    -0.586353719452E+03    0.71418E-05   -0.33303E-05  8482   0.160E-02    0.321E-02
RMM:   7    -0.586353707418E+03    0.12034E-04   -0.18960E-05  8419   0.136E-02    0.989E-03
RMM:   8    -0.586353707312E+03    0.10663E-06   -0.86268E-06  7241   0.813E-03
   7 F= -.58635371E+03 E0= -.58635408E+03  d E =-.104973E-01
 curvature:  -0.97 expect dE=-0.191E-03 dE for cont linesearch -0.142E-07
 trial: gam= 0.06045 g(F)=  0.197E-03 g(S)=  0.000E+00 ort = 0.142E-04 (trialstep = 0.205E+01)
 search vector abs. value=  0.249E-03
 bond charge predicted
       N       E                     dE             d eps       ncg     rms          rms(c)
DAV:   1    -0.586354041534E+03   -0.33412E-03   -0.16470E-02  8744   0.239E-01    0.319E-02
RMM:   2    -0.586354083443E+03   -0.41909E-04   -0.28475E-04  8773   0.623E-02    0.505E-02
RMM:   3    -0.586354070132E+03    0.13310E-04   -0.71314E-05  9763   0.268E-02    0.294E-02
RMM:   4    -0.586354087457E+03   -0.17324E-04   -0.43589E-05  9869   0.150E-02    0.424E-02
RMM:   5    -0.586354065370E+03    0.22087E-04   -0.27304E-05  8022   0.163E-02    0.200E-02
RMM:   6    -0.586354065370E+03   -0.21464E-09   -0.20302E-05  7897   0.138E-02    0.158E-02
RMM:   7    -0.586354062564E+03    0.28066E-05   -0.59348E-06  6267   0.877E-03    0.635E-03
RMM:   8    -0.586354062116E+03    0.44718E-06   -0.15606E-06  5415   0.446E-03
   8 F= -.58635406E+03 E0= -.58635444E+03  d E =-.354805E-03
 ZBRENT: can't locate minimum, use default step
 trial-energy change:   -0.000355  1 .order   -0.000354   -0.000404   -0.000305
 step:   8.1802(harm=  8.3361)  dis= 0.02155  next Energy=  -586.354531 (dE=-0.823E-03)
 bond charge predicted
       N       E                     dE             d eps       ncg     rms          rms(c)
DAV:   1    -0.586354409516E+03   -0.34695E-03   -0.14842E-01  8568   0.713E-01    0.950E-02
RMM:   2    -0.586354733839E+03   -0.32432E-03   -0.20223E-03  8960   0.152E-01    0.147E-01
RMM:   3    -0.586354609826E+03    0.12401E-03   -0.51417E-04 10189   0.714E-02    0.847E-02
RMM:   4    -0.586354863311E+03   -0.25349E-03   -0.49352E-04 10721   0.486E-02    0.152E-01
RMM:   5    -0.586354552727E+03    0.31058E-03   -0.30305E-04  9053   0.542E-02    0.436E-02
RMM:   6    -0.586354550605E+03    0.21222E-05   -0.14980E-04 10226   0.315E-02    0.312E-02
RMM:   7    -0.586354537965E+03    0.12640E-04   -0.38209E-05  8448   0.175E-02    0.156E-02
RMM:   8    -0.586354535991E+03    0.19737E-05   -0.16372E-05  7076   0.852E-03    0.725E-03
RMM:   9    -0.586354535740E+03    0.25142E-06   -0.35470E-06  5878   0.453E-03
   9 F= -.58635454E+03 E0= -.58635492E+03  d E =-.828428E-03
 curvature:  -5.24 expect dE=-0.125E-03 dE for cont linesearch -0.352E-06
 trial: gam= 0.15639 g(F)=  0.239E-04 g(S)=  0.000E+00 ort = 0.409E-05 (trialstep = 0.327E+01)
 search vector abs. value=  0.313E-04
 bond charge predicted
       N       E                     dE             d eps       ncg     rms          rms(c)
DAV:   1    -0.586354594130E+03   -0.58139E-04   -0.54444E-03  9528   0.137E-01    0.213E-02
RMM:   2    -0.586354607884E+03   -0.13753E-04   -0.11411E-04  9032   0.362E-02    0.306E-02
RMM:   3    -0.586354604610E+03    0.32736E-05   -0.31447E-05  8852   0.173E-02    0.218E-02
RMM:   4    -0.586354611173E+03   -0.65631E-05   -0.23309E-05  8719   0.122E-02    0.292E-02
RMM:   5    -0.586354601068E+03    0.10105E-04   -0.12637E-05  7142   0.117E-02    0.144E-02
RMM:   6    -0.586354599799E+03    0.12682E-05   -0.67414E-06  6407   0.899E-03    0.845E-03
RMM:   7    -0.586354599391E+03    0.40868E-06   -0.24662E-06  5642   0.533E-03
  10 F= -.58635460E+03 E0= -.58635499E+03  d E =-.636512E-04
 trial-energy change:   -0.000064  1 .order   -0.000062   -0.000080   -0.000044
 step:   7.1622(harm=  7.1622)  dis= 0.00790  next Energy=  -586.354624 (dE=-0.879E-04)
 bond charge predicted
       N       E                     dE             d eps       ncg     rms          rms(c)
DAV:   1    -0.586354617388E+03   -0.17589E-04   -0.76641E-03  8656   0.162E-01    0.249E-02
RMM:   2    -0.586354628809E+03   -0.11421E-04   -0.13881E-04  9123   0.393E-02    0.278E-02
RMM:   3    -0.586354635792E+03   -0.69833E-05   -0.45547E-05  9277   0.208E-02    0.311E-02
RMM:   4    -0.586354642134E+03   -0.63424E-05   -0.31521E-05 10068   0.108E-02    0.317E-02
RMM:   5    -0.586354625684E+03    0.16451E-04   -0.17699E-05  7603   0.129E-02    0.149E-02
RMM:   6    -0.586354624598E+03    0.10858E-05   -0.97507E-06  6853   0.900E-03    0.910E-03
RMM:   7    -0.586354624562E+03    0.35459E-07   -0.43565E-06  6070   0.628E-03
  11 F= -.58635462E+03 E0= -.58635501E+03  d E =-.888229E-04
 curvature:  -4.56 expect dE=-0.453E-03 dE for cont linesearch -0.105E-06
 trial: gam= 4.25685 g(F)=  0.994E-04 g(S)=  0.000E+00 ort =-0.848E-06 (trialstep = 0.192E+00)
 search vector abs. value=  0.659E-03
 bond charge predicted
       N       E                     dE             d eps       ncg     rms          rms(c)
DAV:   1    -0.586354641615E+03   -0.17017E-04   -0.38609E-04 10216   0.394E-02    0.585E-03
RMM:   2    -0.586354643323E+03   -0.17074E-05   -0.98836E-06  7349   0.110E-02    0.973E-03
RMM:   3    -0.586354642577E+03    0.74547E-06   -0.23806E-06  5573   0.605E-03    0.565E-03
RMM:   4    -0.586354643264E+03   -0.68641E-06   -0.12874E-06  5129   0.416E-03    0.804E-03
RMM:   5    -0.586354642489E+03    0.77509E-06   -0.79290E-07  4587   0.398E-03
  12 F= -.58635464E+03 E0= -.58635503E+03  d E =-.179261E-04
 ZBRENT: can't locate minimum, use default step
 trial-energy change:   -0.000018  1 .order   -0.000018   -0.000018   -0.000018
 step:   0.7689(harm=  8.6829)  dis= 0.00425  next Energy=  -586.355040 (dE=-0.416E-03)
 bond charge predicted
       N       E                     dE             d eps       ncg     rms          rms(c)
DAV:   1    -0.586354692949E+03   -0.49686E-04   -0.34970E-03  8680   0.110E-01    0.164E-02
RMM:   2    -0.586354706048E+03   -0.13099E-04   -0.73942E-05  9067   0.266E-02    0.320E-02
RMM:   3    -0.586354697157E+03    0.88915E-05   -0.19725E-05  7993   0.145E-02    0.116E-02
RMM:   4    -0.586354708921E+03   -0.11764E-04   -0.16674E-05  8357   0.824E-03    0.278E-02
RMM:   5    -0.586354697050E+03    0.11871E-04   -0.66369E-06  6185   0.852E-03    0.756E-03
RMM:   6    -0.586354696663E+03    0.38662E-06   -0.31639E-06  5869   0.581E-03
  13 F= -.58635470E+03 E0= -.58635509E+03  d E =-.721006E-04
 curvature:  -3.92 expect dE=-0.378E-03 dE for cont linesearch -0.503E-04
 ZBRENT: increasing intervall
 opt :   1.9224  next Energy=  -586.354801 (dE=-0.176E-03)
 bond charge predicted
       N       E                     dE             d eps       ncg     rms          rms(c)
DAV:   1    -0.586354782035E+03   -0.84985E-04   -0.13947E-02  8648   0.220E-01    0.314E-02
RMM:   2    -0.586354810342E+03   -0.28307E-04   -0.24222E-04  9084   0.530E-02    0.398E-02
RMM:   3    -0.586354812705E+03   -0.23632E-05   -0.73047E-05  9751   0.246E-02    0.338E-02
RMM:   4    -0.586354827405E+03   -0.14700E-04   -0.51707E-05 10172   0.160E-02    0.444E-02
RMM:   5    -0.586354801368E+03    0.26037E-04   -0.29453E-05  8064   0.170E-02    0.175E-02
RMM:   6    -0.586354800500E+03    0.86767E-06   -0.16920E-05  7664   0.119E-02    0.122E-02
RMM:   7    -0.586354799319E+03    0.11814E-05   -0.53322E-06  6177   0.686E-03    0.586E-03
RMM:   8    -0.586354798925E+03    0.39432E-06   -0.16395E-06  5453   0.442E-03
  14 F= -.58635480E+03 E0= -.58635519E+03  d E =-.174362E-03
 curvature:  -8.11 expect dE=-0.747E-03 dE for cont linesearch -0.885E-04
 ZBRENT: increasing intervall
 opt :   4.2292  next Energy=  -586.354978 (dE=-0.354E-03)
 bond charge predicted
       N       E                     dE             d eps       ncg     rms          rms(c)
DAV:   1    -0.586354929026E+03   -0.12971E-03   -0.55957E-02  8560   0.439E-01    0.623E-02
RMM:   2    -0.586355018974E+03   -0.89948E-04   -0.86743E-04  9258   0.921E-02    0.735E-02
RMM:   3    -0.586355049446E+03   -0.30473E-04   -0.27245E-04 10192   0.479E-02    0.724E-02
RMM:   4    -0.586355098109E+03   -0.48662E-04   -0.21738E-04 11027   0.281E-02    0.850E-02
RMM:   5    -0.586354993493E+03    0.10462E-03   -0.12255E-04  9079   0.333E-02    0.341E-02
RMM:   6    -0.586354985146E+03    0.83467E-05   -0.65761E-05  9821   0.183E-02    0.152E-02
RMM:   7    -0.586354983961E+03    0.11851E-05   -0.23063E-05  7845   0.993E-03    0.933E-03
RMM:   8    -0.586354982956E+03    0.10055E-05   -0.47789E-06  6162   0.641E-03    0.604E-03
RMM:   9    -0.586354982657E+03    0.29875E-06   -0.14107E-06  5424   0.420E-03
  15 F= -.58635498E+03 E0= -.58635538E+03  d E =-.358094E-03
 curvature: -16.42 expect dE=-0.133E-02 dE for cont linesearch -0.127E-03
 ZBRENT: increasing intervall
 opt :   8.8429  next Energy=  -586.355250 (dE=-0.625E-03)
 bond charge predicted
       N       E                     dE             d eps       ncg     rms          rms(c)
DAV:   1    -0.586355076595E+03   -0.93640E-04   -0.22376E-01  8544   0.877E-01    0.125E-01
RMM:   2    -0.586355390389E+03   -0.31379E-03   -0.32999E-03  9714   0.171E-01    0.137E-01
RMM:   3    -0.586355581590E+03   -0.19120E-03   -0.10819E-03 10199   0.964E-02    0.156E-01
RMM:   4    -0.586355738898E+03   -0.15731E-03   -0.89408E-04 10946   0.594E-02    0.174E-01
RMM:   5    -0.586355309590E+03    0.42931E-03   -0.46208E-04  9101   0.661E-02    0.663E-02
RMM:   6    -0.586355273832E+03    0.35759E-04   -0.24119E-04 10457   0.354E-02    0.289E-02
RMM:   7    -0.586355272432E+03    0.13994E-05   -0.95189E-05 10112   0.196E-02    0.185E-02
RMM:   8    -0.586355268562E+03    0.38704E-05   -0.19378E-05  7719   0.111E-02    0.110E-02
RMM:   9    -0.586355267580E+03    0.98154E-06   -0.68868E-06  6458   0.669E-03
  16 F= -.58635527E+03 E0= -.58635569E+03  d E =-.643018E-03
 curvature: -34.56 expect dE=-0.190E-02 dE for cont linesearch -0.114E-03
 ZBRENT: increasing intervall
 opt :  18.0703  next Energy=  -586.355469 (dE=-0.844E-03)
 bond charge predicted
       N       E                     dE             d eps       ncg     rms          rms(c)
DAV:   1    -0.586354730726E+03    0.53784E-03   -0.89093E-01  8536   0.175E+00    0.248E-01
RMM:   2    -0.586355759934E+03   -0.10292E-02   -0.12670E-02  9768   0.333E-01    0.237E-01
RMM:   3    -0.586357230976E+03   -0.14710E-02   -0.46781E-03 10166   0.200E-01    0.364E-01
RMM:   4    -0.586357012347E+03    0.21863E-03   -0.30487E-03 10949   0.110E-01    0.303E-01
RMM:   5    -0.586355654949E+03    0.13574E-02   -0.15563E-03  9131   0.121E-01    0.131E-01
RMM:   6    -0.586355514049E+03    0.14090E-03   -0.86578E-04 10577   0.655E-02    0.573E-02
RMM:   7    -0.586355505855E+03    0.81946E-05   -0.33354E-04 10345   0.390E-02    0.370E-02
RMM:   8    -0.586355490431E+03    0.15424E-04   -0.77663E-05  9450   0.220E-02    0.208E-02
RMM:   9    -0.586355487452E+03    0.29785E-05   -0.30182E-05  8419   0.118E-02    0.111E-02
RMM:  10    -0.586355486925E+03    0.52657E-06   -0.92747E-06  6812   0.645E-03
  17 F= -.58635549E+03 E0= -.58635594E+03  d E =-.862363E-03
 curvature: -61.06 expect dE=-0.479E-02 dE for cont linesearch -0.128E-04
 trial: gam= 1.08160 g(F)=  0.785E-04 g(S)=  0.000E+00 ort =-0.117E-04 (trialstep = 0.301E+01)
 search vector abs. value=  0.824E-03
 bond charge predicted
       N       E                     dE             d eps       ncg     rms          rms(c)
DAV:   1    -0.586355514286E+03   -0.26834E-04   -0.11928E-01  9000   0.641E-01    0.972E-02
RMM:   2    -0.586355631963E+03   -0.11768E-03   -0.17329E-03  9634   0.132E-01    0.710E-02
RMM:   3    -0.586355827446E+03   -0.19548E-03   -0.84565E-04  9843   0.859E-02    0.128E-01
RMM:   4    -0.586355760785E+03    0.66661E-04   -0.31240E-04  9146   0.597E-02    0.827E-02
RMM:   5    -0.586355664049E+03    0.96736E-04   -0.12696E-04 10745   0.238E-02    0.475E-02
RMM:   6    -0.586355642846E+03    0.21203E-04   -0.70861E-05  9193   0.231E-02    0.348E-02
RMM:   7    -0.586355635382E+03    0.74642E-05   -0.37085E-05  8690   0.175E-02    0.199E-02
RMM:   8    -0.586355632935E+03    0.24469E-05   -0.13779E-05  7149   0.116E-02    0.125E-02
RMM:   9    -0.586355631294E+03    0.16413E-05   -0.66029E-06  6055   0.641E-03    0.348E-03
RMM:  10    -0.586355631476E+03   -0.18222E-06   -0.19620E-06  5688   0.288E-03
  18 F= -.58635563E+03 E0= -.58635610E+03  d E =-.144551E-03
 trial-energy change:   -0.000145  1 .order   -0.000134   -0.000198   -0.000069
 step:   3.9784(harm=  4.6253)  dis= 0.02479  next Energy=  -586.355643 (dE=-0.156E-03)
 bond charge predicted
       N       E                     dE             d eps       ncg     rms          rms(c)
DAV:   1    -0.586355636487E+03   -0.51933E-05   -0.12254E-02  9472   0.206E-01    0.317E-02
RMM:   2    -0.586355650551E+03   -0.14063E-04   -0.19063E-04  9062   0.460E-02    0.248E-02
RMM:   3    -0.586355669903E+03   -0.19352E-04   -0.85337E-05  9618   0.283E-02    0.415E-02
RMM:   4    -0.586355668748E+03    0.11550E-05   -0.31294E-05  9090   0.175E-02    0.311E-02
RMM:   5    -0.586355653346E+03    0.15401E-04   -0.15145E-05  8077   0.104E-02    0.166E-02
RMM:   6    -0.586355651857E+03    0.14895E-05   -0.98232E-06  6698   0.954E-03    0.132E-02
RMM:   7    -0.586355650844E+03    0.10127E-05   -0.49427E-06  6038   0.771E-03    0.817E-03
RMM:   8    -0.586355650373E+03    0.47069E-06   -0.18771E-06  5544   0.525E-03
  19 F= -.58635565E+03 E0= -.58635612E+03  d E =-.163448E-03
 curvature: -24.30 expect dE=-0.891E-03 dE for cont linesearch -0.330E-05
 ZBRENT: increasing intervall
 opt :   5.9089  next Energy=  -586.355647 (dE=-0.160E-03)
 bond charge predicted
       N       E                     dE             d eps       ncg     rms          rms(c)
DAV:   1    -0.586355599648E+03    0.51196E-04   -0.48989E-02  8704   0.410E-01    0.634E-02
RMM:   2    -0.586355643940E+03   -0.44292E-04   -0.68746E-04  9114   0.840E-02    0.442E-02
RMM:   3    -0.586355744749E+03   -0.10081E-03   -0.35386E-04  9950   0.540E-02    0.908E-02
RMM:   4    -0.586355708991E+03    0.35758E-04   -0.12971E-04  9474   0.368E-02    0.560E-02
RMM:   5    -0.586355659099E+03    0.49891E-04   -0.69889E-05 10414   0.174E-02    0.308E-02
RMM:   6    -0.586355651055E+03    0.80444E-05   -0.28232E-05  8102   0.150E-02    0.208E-02
RMM:   7    -0.586355648247E+03    0.28076E-05   -0.14451E-05  7295   0.116E-02    0.117E-02
RMM:   8    -0.586355647049E+03    0.11986E-05   -0.48708E-06  6075   0.733E-03    0.632E-03
RMM:   9    -0.586355646794E+03    0.25536E-06   -0.19911E-06  5573   0.415E-03
  20 F= -.58635565E+03 E0= -.58635612E+03  d E =-.159868E-03
 curvature:  25.43 expect dE= 0.174E-02 dE for cont linesearch  0.107E-04
 ZBRENT: bracketing found
 ZBRENT: interpolating
 opt :   4.6775  next Energy=  -586.355654 (dE=-0.167E-03)
 bond charge predicted
       N       E                     dE             d eps       ncg     rms          rms(c)
DAV:   1    -0.586355638021E+03    0.90279E-05   -0.19902E-02  8664   0.262E-01    0.404E-02
RMM:   2    -0.586355654670E+03   -0.16649E-04   -0.27704E-04  9170   0.539E-02    0.269E-02
RMM:   3    -0.586355680892E+03   -0.26222E-04   -0.12991E-04 10054   0.315E-02    0.425E-02
RMM:   4    -0.586355669523E+03    0.11368E-04   -0.47761E-05  8841   0.243E-02    0.295E-02
RMM:   5    -0.586355659882E+03    0.96411E-05   -0.18439E-05  8524   0.847E-03    0.157E-02
RMM:   6    -0.586355656900E+03    0.29824E-05   -0.90270E-06  6790   0.872E-03    0.104E-02
RMM:   7    -0.586355656303E+03    0.59639E-06   -0.35383E-06  5866   0.715E-03
  21 F= -.58635566E+03 E0= -.58635612E+03  d E =-.169378E-03
 curvature:  -8.78 expect dE=-0.397E-03 dE for cont linesearch -0.146E-06
 trial: gam= 0.49442 g(F)=  0.452E-04 g(S)=  0.000E+00 ort = 0.370E-05 (trialstep = 0.335E+01)
 search vector abs. value=  0.250E-03
 bond charge predicted
       N       E                     dE             d eps       ncg     rms          rms(c)
DAV:   1    -0.586355700963E+03   -0.44063E-04   -0.45333E-02  8576   0.393E-01    0.672E-02
RMM:   2    -0.586355717626E+03   -0.16663E-04   -0.64596E-04  9646   0.775E-02    0.466E-02
RMM:   3    -0.586355825552E+03   -0.10793E-03   -0.38028E-04 10418   0.512E-02    0.970E-02
RMM:   4    -0.586355738143E+03    0.87409E-04   -0.19236E-04  8803   0.460E-02    0.488E-02
RMM:   5    -0.586355713294E+03    0.24849E-04   -0.68257E-05  9513   0.250E-02    0.217E-02
RMM:   6    -0.586355709819E+03    0.34755E-05   -0.27115E-05  8221   0.121E-02    0.102E-02
RMM:   7    -0.586355711133E+03   -0.13148E-05   -0.94465E-06  7052   0.627E-03    0.121E-02
RMM:   8    -0.586355709220E+03    0.19139E-05   -0.29783E-06  5757   0.564E-03    0.895E-03
RMM:   9    -0.586355708475E+03    0.74465E-06   -0.23868E-06  5733   0.560E-03
  22 F= -.58635571E+03 E0= -.58635618E+03  d E =-.521714E-04
 trial-energy change:   -0.000052  1 .order   -0.000050   -0.000157    0.000057
 step:   2.4591(harm=  2.4591)  dis= 0.00788  next Energy=  -586.355714 (dE=-0.578E-04)
 bond charge predicted
       N       E                     dE             d eps       ncg     rms          rms(c)
DAV:   1    -0.586355713347E+03   -0.41279E-05   -0.31682E-03  8840   0.104E-01    0.177E-02
RMM:   2    -0.586355715038E+03   -0.16910E-05   -0.46643E-05  8622   0.223E-02    0.123E-02
RMM:   3    -0.586355719147E+03   -0.41087E-05   -0.22515E-05  8830   0.129E-02    0.165E-02
RMM:   4    -0.586355715794E+03    0.33530E-05   -0.90498E-06  7250   0.108E-02    0.970E-03
RMM:   5    -0.586355714770E+03    0.10245E-05   -0.31344E-06  5797   0.605E-03    0.421E-03
RMM:   6    -0.586355714775E+03   -0.55534E-08   -0.11573E-06  4812   0.392E-03
  23 F= -.58635571E+03 E0= -.58635619E+03  d E =-.584717E-04
 curvature:  -6.54 expect dE=-0.668E-04 dE for cont linesearch -0.159E-06
 trial: gam= 0.18638 g(F)=  0.102E-04 g(S)=  0.000E+00 ort = 0.246E-05 (trialstep = 0.317E+01)
 search vector abs. value=  0.198E-04
 reached required accuracy - stopping structural energy minimisation
 augmentation electrons   31.437992627568832     
 soft         electrons   251.68976522767224     
 total        electrons   283.12775785524104     
 augmentation electrons   31.437992627568832     
 soft         electrons   251.68976522767224     
 total        electrons   283.12775785524104     
 augmentation electrons   31.437992627568832     
 soft         electrons   251.68976522767224     
 total        electrons   283.12775785524104     
 augmentation electrons   31.437992627568832     
 soft         electrons   251.68976522767224     
 total        electrons   283.12775785524104     
 augmentation electrons   31.437992627568832     
 soft         electrons   251.68976522767224     
 total        electrons   283.12775785524104     
 augmentation electrons   31.437992627568832     
 soft         electrons   251.68976522767224     
 total        electrons   283.12775785524104     
 augmentation electrons   31.437992627568832     
 soft         electrons   251.68976522767224     
 total        electrons   283.12775785524104     
 augmentation electrons   31.437992627568832     
 soft         electrons   251.68976522767224     
 augmentation electrons   31.437992627568832     
 soft         electrons   251.68976522767224     
 total        electrons   283.12775785524104     
 augmentation electrons   31.437992627568832     
 soft         electrons   251.68976522767224     
 total        electrons   283.12775785524104     
 augmentation electrons   31.437992627568832     
 soft         electrons   251.68976522767224     
 total        electrons   283.12775785524104     
 augmentation electrons   31.437992627568832     
 soft         electrons   251.68976522767224     
 augmentation electrons   31.437992627568832     
 soft         electrons   251.68976522767224     
 total        electrons   283.12775785524104     
 augmentation electrons   31.437992627568832     
 soft         electrons   251.68976522767224     
 total        electrons   283.12775785524104     
 augmentation electrons   31.437992627568832     
 soft         electrons   251.68976522767224     
 total        electrons   283.12775785524104     
 augmentation electrons   31.437992627568832     
 soft         electrons   251.68976522767224     
 total        electrons   283.12775785524104     
 augmentation electrons   31.437992627568832     
 soft         electrons   251.68976522767224     
 total        electrons   283.12775785524104     
 augmentation electrons   31.437992627568832     
 soft         electrons   251.68976522767224     
 total        electrons   283.12775785524104     
 augmentation electrons   31.437992627568832     
 soft         electrons   251.68976522767224     
 total        electrons   283.12775785524104     
 augmentation electrons   31.437992627568832     
 soft         electrons   251.68976522767224     
 total        electrons   283.12775785524104     
 augmentation electrons   31.437992627568832     
 soft         electrons   251.68976522767224     
 augmentation electrons   31.437992627568832     
 soft         electrons   251.68976522767224     
 augmentation electrons   31.437992627568832     
 soft         electrons   251.68976522767224     
 total        electrons   283.12775785524104     
 augmentation electrons   31.437992627568832     
 soft         electrons   251.68976522767224     
 augmentation electrons   31.437992627568832     
 soft         electrons   251.68976522767224     
 total        electrons   283.12775785524104     
 augmentation electrons   31.437992627568832     
 soft         electrons   251.68976522767224     
 total        electrons   283.12775785524104     
 augmentation electrons   31.437992627568832     
 soft         electrons   251.68976522767224     
 total        electrons   283.12775785524104     
 augmentation electrons   31.437992627568832     
 soft         electrons   251.68976522767224     
 total        electrons   283.12775785524104     
 augmentation electrons   31.437992627568832     
 soft         electrons   251.68976522767224     
 total        electrons   283.12775785524104     
 augmentation electrons   31.437992627568832     
 soft         electrons   251.68976522767224     
 total        electrons   283.12775785524104     
 augmentation electrons   31.437992627568832     
 soft         electrons   251.68976522767224     
 augmentation electrons   31.437992627568832     
 soft         electrons   251.68976522767224     
 total        electrons   283.12775785524104     
 augmentation electrons   31.437992627568832     
 soft         electrons   251.68976522767224     
 total        electrons   283.12775785524104     
 augmentation electrons   31.437992627568832     
 soft         electrons   251.68976522767224     
 total        electrons   283.12775785524104     
 augmentation electrons   31.437992627568832     
 soft         electrons   251.68976522767224     
 total        electrons   283.12775785524104     
 augmentation electrons   31.437992627568832     
 soft         electrons   251.68976522767224     
 augmentation electrons   31.437992627568832     
 soft         electrons   251.68976522767224     
 total        electrons   283.12775785524104     
 augmentation electrons   31.437992627568832     
 soft         electrons   251.68976522767224     
 total        electrons   283.12775785524104     
 augmentation electrons   31.437992627568832     
 soft         electrons   251.68976522767224     
 total        electrons   283.12775785524104     
 augmentation electrons   31.437992627568832     
 soft         electrons   251.68976522767224     
 total        electrons   283.12775785524104     
 augmentation electrons   31.437992627568832     
 soft         electrons   251.68976522767224     
 augmentation electrons   31.437992627568832     
 soft         electrons   251.68976522767224     
 total        electrons   283.12775785524104     
 augmentation electrons   31.437992627568832     
 soft         electrons   251.68976522767224     
 total        electrons   283.12775785524104     
 augmentation electrons   31.437992627568832     
 soft         electrons   251.68976522767224     
 total        electrons   283.12775785524104     
 augmentation electrons   31.437992627568832     
 soft         electrons   251.68976522767224     
 augmentation electrons   31.437992627568832     
 soft         electrons   251.68976522767224     
 augmentation electrons   31.437992627568832     
 soft         electrons   251.68976522767224     
 augmentation electrons   31.437992627568832     
 soft         electrons   251.68976522767224     
 total        electrons   283.12775785524104     
 augmentation electrons   31.437992627568832     
 soft         electrons   251.68976522767224     
 total        electrons   283.12775785524104     
 augmentation electrons   31.437992627568832     
 soft         electrons   251.68976522767224     
 augmentation electrons   31.437992627568832     
 soft         electrons   251.68976522767224     
 total        electrons   283.12775785524104     
 augmentation electrons   31.437992627568832     
 soft         electrons   251.68976522767224     
 total        electrons   283.12775785524104     
 augmentation electrons   31.437992627568832     
 soft         electrons   251.68976522767224     
 total        electrons   283.12775785524104     
 augmentation electrons   31.437992627568832     
 soft         electrons   251.68976522767224     
 augmentation electrons   31.437992627568832     
 soft         electrons   251.68976522767224     
 total        electrons   283.12775785524104     
 augmentation electrons   31.437992627568832     
 soft         electrons   251.68976522767224     
 augmentation electrons   31.437992627568832     
 soft         electrons   251.68976522767224     
 total        electrons   283.12775785524104     
 augmentation electrons   31.437992627568832     
 soft         electrons   251.68976522767224     
 total        electrons   283.12775785524104     
 augmentation electrons   31.437992627568832     
 soft         electrons   251.68976522767224     
 total        electrons   283.12775785524104     
 augmentation electrons   31.437992627568832     
 soft         electrons   251.68976522767224     
 total        electrons   283.12775785524104     
 augmentation electrons   31.437992627568832     
 soft         electrons   251.68976522767224     
 total        electrons   283.12775785524104     
 augmentation electrons   31.437992627568832     
 soft         electrons   251.68976522767224     
 total        electrons   283.12775785524104     
 augmentation electrons   31.437992627568832     
 soft         electrons   251.68976522767224     
 total        electrons   283.12775785524104     
 augmentation electrons   31.437992627568832     
 soft         electrons   251.68976522767224     
 total        electrons   283.12775785524104     
 augmentation electrons   31.437992627568832     
 soft         electrons   251.68976522767224     
 total        electrons   283.12775785524104     
 augmentation electrons   31.437992627568832     
 soft         electrons   251.68976522767224     
 augmentation electrons   31.437992627568832     
 soft         electrons   251.68976522767224     
 total        electrons   283.12775785524104     
 augmentation electrons   31.437992627568832     
 soft         electrons   251.68976522767224     
 total        electrons   283.12775785524104     
 augmentation electrons   31.437992627568832     
 soft         electrons   251.68976522767224     
 augmentation electrons   31.437992627568832     
 soft         electrons   251.68976522767224     
 augmentation electrons   31.437992627568832     
 soft         electrons   251.68976522767224     
 augmentation electrons   31.437992627568832     
 soft         electrons   251.68976522767224     
 total        electrons   283.12775785524104     
 total        electrons   283.12775785524104     
 total        electrons   283.12775785524104     
 total        electrons   283.12775785524104     
 total        electrons   283.12775785524104     
 total        electrons   283.12775785524104     
 total        electrons   283.12775785524104     
 total        electrons   283.12775785524104     
 total        electrons   283.12775785524104     
 total        electrons   283.12775785524104     
 total        electrons   283.12775785524104     
 total        electrons   283.12775785524104     
 total        electrons   283.12775785524104     
 total        electrons   283.12775785524104     
 total        electrons   283.12775785524104     
 total        electrons   283.12775785524104     
 total        electrons   283.12775785524104     
 total        electrons   283.12775785524104     
 total        electrons   283.12775785524104     
Note: The following floating-point exceptions are signalling: IEEE_OVERFLOW_FLAG
Note: The following floating-point exceptions are signalling: IEEE_OVERFLOW_FLAG
Note: The following floating-point exceptions are signalling: IEEE_OVERFLOW_FLAG
Note: The following floating-point exceptions are signalling: IEEE_OVERFLOW_FLAG
Note: The following floating-point exceptions are signalling: IEEE_OVERFLOW_FLAG
Note: The following floating-point exceptions are signalling: IEEE_OVERFLOW_FLAG
Note: The following floating-point exceptions are signalling: IEEE_OVERFLOW_FLAG
Note: The following floating-point exceptions are signalling: IEEE_OVERFLOW_FLAG
Note: The following floating-point exceptions are signalling: IEEE_OVERFLOW_FLAG
Note: The following floating-point exceptions are signalling: IEEE_OVERFLOW_FLAG
Note: The following floating-point exceptions are signalling: IEEE_OVERFLOW_FLAG
Note: The following floating-point exceptions are signalling: IEEE_OVERFLOW_FLAG
Note: The following floating-point exceptions are signalling: IEEE_OVERFLOW_FLAG
Note: The following floating-point exceptions are signalling: IEEE_OVERFLOW_FLAG
Note: The following floating-point exceptions are signalling: IEEE_OVERFLOW_FLAG
Note: The following floating-point exceptions are signalling: IEEE_OVERFLOW_FLAG
Note: The following floating-point exceptions are signalling: IEEE_OVERFLOW_FLAG
Note: The following floating-point exceptions are signalling: IEEE_OVERFLOW_FLAG
Note: The following floating-point exceptions are signalling: IEEE_OVERFLOW_FLAG
Note: The following floating-point exceptions are signalling: IEEE_OVERFLOW_FLAG
Note: The following floating-point exceptions are signalling: IEEE_OVERFLOW_FLAG
Note: The following floating-point exceptions are signalling: IEEE_OVERFLOW_FLAG
Note: The following floating-point exceptions are signalling: IEEE_OVERFLOW_FLAG
Note: The following floating-point exceptions are signalling: IEEE_OVERFLOW_FLAG
Note: The following floating-point exceptions are signalling: IEEE_OVERFLOW_FLAG
Note: The following floating-point exceptions are signalling: IEEE_OVERFLOW_FLAG
Note: The following floating-point exceptions are signalling: IEEE_OVERFLOW_FLAG
Note: The following floating-point exceptions are signalling: IEEE_OVERFLOW_FLAG
Note: The following floating-point exceptions are signalling: IEEE_OVERFLOW_FLAG
Note: The following floating-point exceptions are signalling: IEEE_OVERFLOW_FLAG
Note: The following floating-point exceptions are signalling: IEEE_OVERFLOW_FLAG
Note: The following floating-point exceptions are signalling: IEEE_OVERFLOW_FLAG
Note: The following floating-point exceptions are signalling: IEEE_OVERFLOW_FLAG
Note: The following floating-point exceptions are signalling: IEEE_OVERFLOW_FLAG
Note: The following floating-point exceptions are signalling: IEEE_OVERFLOW_FLAG
Note: The following floating-point exceptions are signalling: IEEE_OVERFLOW_FLAG
Note: The following floating-point exceptions are signalling: IEEE_OVERFLOW_FLAG
Note: The following floating-point exceptions are signalling: IEEE_OVERFLOW_FLAG
Note: The following floating-point exceptions are signalling: IEEE_OVERFLOW_FLAG
Note: The following floating-point exceptions are signalling: IEEE_OVERFLOW_FLAG
Note: The following floating-point exceptions are signalling: IEEE_OVERFLOW_FLAG
Note: The following floating-point exceptions are signalling: IEEE_OVERFLOW_FLAG
Note: The following floating-point exceptions are signalling: IEEE_OVERFLOW_FLAG
Note: The following floating-point exceptions are signalling: IEEE_OVERFLOW_FLAG
Note: The following floating-point exceptions are signalling: IEEE_OVERFLOW_FLAG
Note: The following floating-point exceptions are signalling: IEEE_OVERFLOW_FLAG
Note: The following floating-point exceptions are signalling: IEEE_OVERFLOW_FLAG
Note: The following floating-point exceptions are signalling: IEEE_OVERFLOW_FLAG
Note: The following floating-point exceptions are signalling: IEEE_OVERFLOW_FLAG
Note: The following floating-point exceptions are signalling: IEEE_OVERFLOW_FLAG
Note: The following floating-point exceptions are signalling: IEEE_OVERFLOW_FLAG
Note: The following floating-point exceptions are signalling: IEEE_OVERFLOW_FLAG
Note: The following floating-point exceptions are signalling: IEEE_OVERFLOW_FLAG
Note: The following floating-point exceptions are signalling: IEEE_OVERFLOW_FLAG
Note: The following floating-point exceptions are signalling: IEEE_OVERFLOW_FLAG
Note: The following floating-point exceptions are signalling: IEEE_OVERFLOW_FLAG
Note: The following floating-point exceptions are signalling: IEEE_OVERFLOW_FLAG
Note: The following floating-point exceptions are signalling: IEEE_OVERFLOW_FLAG
Note: The following floating-point exceptions are signalling: IEEE_OVERFLOW_FLAG
Note: The following floating-point exceptions are signalling: IEEE_OVERFLOW_FLAG
Note: The following floating-point exceptions are signalling: IEEE_OVERFLOW_FLAG
Note: The following floating-point exceptions are signalling: IEEE_OVERFLOW_FLAG
Note: The following floating-point exceptions are signalling: IEEE_OVERFLOW_FLAG
Note: The following floating-point exceptions are signalling: IEEE_OVERFLOW_FLAG
Note: The following floating-point exceptions are signalling: IEEE_OVERFLOW_FLAG
Note: The following floating-point exceptions are signalling: IEEE_OVERFLOW_FLAG
Note: The following floating-point exceptions are signalling: IEEE_OVERFLOW_FLAG
Note: The following floating-point exceptions are signalling: IEEE_OVERFLOW_FLAG
Note: The following floating-point exceptions are signalling: IEEE_OVERFLOW_FLAG
Note: The following floating-point exceptions are signalling: IEEE_OVERFLOW_FLAG
Note: The following floating-point exceptions are signalling: IEEE_OVERFLOW_FLAG
Note: The following floating-point exceptions are signalling: IEEE_OVERFLOW_FLAG
