   36   36   60    1
  0.8205287E+01  0.6065472E-09  0.6065472E-09  0.9284660E-09  0.5000000E-15
   1.0000000000000000E-004
  CAR 
 Name                                    
    138    125     90

  0.3742002E-15  0.3742002E-15  0.3742002E-15  0.1371742E-02
    1       -5.604558   1.000000
    2       -4.126014   1.000000
    3       -4.126006   1.000000
    4       -2.207255   1.000000
    5       -2.207236   1.000000
    6       -1.951028   1.000000
    7       -1.951014   1.000000
    8       -1.695674   1.000000
    9       -1.695661   1.000000
   10       -1.641490   1.000000
   11       -1.577082   1.000000
   12       -1.573437   1.000000
   13       -1.239331   1.000000
   14       -1.217044   1.000000
   15       -1.098536   1.000000
   16       -0.263210   1.000000
   17       -0.263202   1.000000
   18       -0.080686   1.000000
   19       -0.080679   1.000000
   20        0.033085   1.000000
   21        0.033093   1.000000
   22        1.487483   1.000000
   23        1.487491   1.000000
   24        2.812198   1.000000
   25        2.812210   1.000000
   26        3.009855   1.000000
   27        3.009869   1.000000
   28        3.390875   1.000000
   29        3.390888   1.000000
   30        3.793968   1.000000
   31        3.929540   1.000000
   32        3.929549   1.000000
   33        4.297183   1.000000
   34        4.365965   1.000000
   35        4.365975   1.000000
   36        4.459123   1.000000
   37        4.665423   1.000000
   38        4.757016   1.000000
   39        4.779203   1.000000
   40        4.779211   1.000000
   41        4.783269   1.000000
   42        4.801380   1.000000
   43        4.801395   1.000000
   44        4.829553   1.000000
   45        4.853385   1.000000
   46        4.945346   1.000000
   47        4.945354   1.000000
   48        4.971716   1.000000
   49        4.971723   1.000000
   50        5.007344   1.000000
   51        5.159636   1.000000
   52        5.211130   1.000000
   53        5.950470   1.000000
   54        6.028007   1.000000
   55        6.028014   1.000000
   56        6.275631   1.000000
   57        6.275639   1.000000
   58        6.429861   1.000000
   59        7.280098   1.000000
   60        7.280116   1.000000
   61        7.333690   1.000000
   62        7.333706   1.000000
   63        8.382370   1.000000
   64        8.618789   1.000000
   65        9.032713   1.000000
   66        9.415043   0.955356
   67        9.415054   0.955315
   68        9.430752   0.886225
   69        9.570149  -0.004612
   70        9.578815  -0.019190
   71        9.578818  -0.019194
   72        9.686559  -0.007298
   73        9.686563  -0.007297
   74        9.949741  -0.000000
   75        9.949747  -0.000000
   76       10.304638  -0.000000
   77       10.304649  -0.000000
   78       10.307305  -0.000000
   79       10.323831  -0.000000
   80       10.488542  -0.000000
   81       10.488588  -0.000000
   82       10.525983  -0.000000
   83       10.526245  -0.000000
   84       10.534811  -0.000000
   85       10.534829  -0.000000
   86       10.596892  -0.000000
   87       10.867575  -0.000000
   88       10.873461  -0.000000
   89       10.943347  -0.000000
   90       11.198739  -0.000000

  0.1111111E+00  0.3652885E-15  0.3742002E-15  0.5486968E-02
    1       -5.543845   1.000000
    2       -4.085356   1.000000
    3       -4.085348   1.000000
    4       -2.266858   1.000000
    5       -2.266841   1.000000
    6       -2.199933   1.000000
    7       -1.963670   1.000000
    8       -1.963656   1.000000
    9       -1.823655   1.000000
   10       -1.823643   1.000000
   11       -1.801232   1.000000
   12       -1.786367   1.000000
   13       -0.923512   1.000000
   14       -0.906828   1.000000
   15       -0.530218   1.000000
   16       -0.078219   1.000000
   17       -0.078211   1.000000
   18       -0.022786   1.000000
   19       -0.022778   1.000000
   20        0.136330   1.000000
   21        0.136338   1.000000
   22        1.536834   1.000000
   23        1.536841   1.000000
   24        2.791064   1.000000
   25        2.791076   1.000000
   26        2.939204   1.000000
   27        2.939218   1.000000
   28        3.392798   1.000000
   29        3.392810   1.000000
   30        3.849875   1.000000
   31        3.927262   1.000000
   32        3.927270   1.000000
   33        4.058914   1.000000
   34        4.148997   1.000000
   35        4.339226   1.000000
   36        4.352590   1.000000
   37        4.352600   1.000000
   38        4.520925   1.000000
   39        4.608576   1.000000
   40        4.608585   1.000000
   41        4.747924   1.000000
   42        4.747932   1.000000
   43        4.798046   1.000000
   44        4.804181   1.000000
   45        4.807093   1.000000
   46        4.957825   1.000000
   47        4.957833   1.000000
   48        5.100968   1.000000
   49        5.100979   1.000000
   50        5.123945   1.000000
   51        5.432436   1.000000
   52        5.750197   1.000000
   53        5.755504   1.000000
   54        5.755508   1.000000
   55        6.034027   1.000000
   56        6.034032   1.000000
   57        6.169233   1.000000
   58        6.280982   1.000000
   59        7.316285   1.000000
   60        7.316295   1.000000
   61        7.456691   1.000000
   62        7.456700   1.000000
   63        8.260548   1.000000
   64        8.490855   1.000000
   65        8.956850   1.000000
   66        9.431149   0.884160
   67        9.459221   0.700982
   68        9.459231   0.700905
   69        9.662556  -0.014903
   70        9.679593  -0.009129
   71        9.679594  -0.009128
   72        9.841624  -0.000003
   73        9.841625  -0.000003
   74        9.954261  -0.000000
   75        9.954267  -0.000000
   76       10.244339  -0.000000
   77       10.268987  -0.000000
   78       10.349385  -0.000000
   79       10.349434  -0.000000
   80       10.395868  -0.000000
   81       10.395941  -0.000000
   82       10.532481  -0.000000
   83       10.532842  -0.000000
   84       10.550837  -0.000000
   85       10.563522  -0.000000
   86       10.563564  -0.000000
   87       10.734742  -0.000000
   88       10.735064  -0.000000
   89       10.860895  -0.000000
   90       11.101692  -0.000000

  0.2222222E+00  0.3712712E-15  0.3742002E-15  0.5486968E-02
    1       -5.363320   1.000000
    2       -3.965403   1.000000
    3       -3.965395   1.000000
    4       -2.913174   1.000000
    5       -2.498941   1.000000
    6       -2.498928   1.000000
    7       -2.044840   1.000000
    8       -2.035372   1.000000
    9       -1.993622   1.000000
   10       -1.993609   1.000000
   11       -1.974538   1.000000
   12       -1.974526   1.000000
   13       -0.438539   1.000000
   14       -0.419554   1.000000
   15        0.126828   1.000000
   16        0.126836   1.000000
   17        0.129480   1.000000
   18        0.129489   1.000000
   19        0.286723   1.000000
   20        0.602003   1.000000
   21        0.602010   1.000000
   22        1.683365   1.000000
   23        1.683373   1.000000
   24        2.691187   1.000000
   25        2.691197   1.000000
   26        2.747238   1.000000
   27        2.747250   1.000000
   28        3.366839   1.000000
   29        3.376064   1.000000
   30        3.453478   1.000000
   31        3.453489   1.000000
   32        3.849977   1.000000
   33        3.849984   1.000000
   34        4.014611   1.000000
   35        4.099028   1.000000
   36        4.274353   1.000000
   37        4.274361   1.000000
   38        4.346889   1.000000
   39        4.346897   1.000000
   40        4.456835   1.000000
   41        4.677372   1.000000
   42        4.677377   1.000000
   43        4.827239   1.000000
   44        4.833498   1.000000
   45        4.836375   1.000000
   46        4.982574   1.000000
   47        4.982582   1.000000
   48        5.122525   1.000000
   49        5.122530   1.000000
   50        5.277413   1.000000
   51        5.305991   1.000000
   52        5.306003   1.000000
   53        5.618070   1.000000
   54        5.631189   1.000000
   55        5.631194   1.000000
   56        5.924145   1.000000
   57        6.490380   1.000000
   58        6.708550   1.000000
   59        7.170481   1.000000
   60        7.170482   1.000000
   61        7.752365   1.000000
   62        7.752367   1.000000
   63        7.918950   1.000000
   64        8.091207   1.000000
   65        8.935709   1.000000
   66        9.367484   1.034817
   67        9.470528   0.610987
   68        9.470536   0.610922
   69        9.922056  -0.000000
   70        9.922064  -0.000000
   71        9.975846  -0.000000
   72       10.020404  -0.000000
   73       10.020404  -0.000000
   74       10.057602  -0.000000
   75       10.057613  -0.000000
   76       10.064686  -0.000000
   77       10.094048  -0.000000
   78       10.254190  -0.000000
   79       10.254259  -0.000000
   80       10.344298  -0.000000
   81       10.344698  -0.000000
   82       10.406443  -0.000000
   83       10.484694  -0.000000
   84       10.484855  -0.000000
   85       10.682428  -0.000000
   86       10.696941  -0.000000
   87       10.701071  -0.000000
   88       10.707932  -0.000000
   89       10.715276  -0.000000
   90       10.945822  -0.000000

  0.3333333E+00  0.3525586E-15  0.3742002E-15  0.5486968E-02
    1       -5.067660   1.000000
    2       -3.771828   1.000000
    3       -3.771820   1.000000
    4       -3.574423   1.000000
    5       -2.847651   1.000000
    6       -2.847641   1.000000
    7       -2.215040   1.000000
    8       -2.209149   1.000000
    9       -2.031791   1.000000
   10       -2.031779   1.000000
   11       -2.025089   1.000000
   12       -2.025077   1.000000
   13        0.101177   1.000000
   14        0.123114   1.000000
   15        0.302473   1.000000
   16        0.302484   1.000000
   17        0.316513   1.000000
   18        0.316523   1.000000
   19        1.121672   1.000000
   20        1.253202   1.000000
   21        1.253209   1.000000
   22        1.915093   1.000000
   23        1.915100   1.000000
   24        2.497448   1.000000
   25        2.497457   1.000000
   26        2.510518   1.000000
   27        2.510527   1.000000
   28        2.643939   1.000000
   29        2.659782   1.000000
   30        3.482856   1.000000
   31        3.550503   1.000000
   32        3.550509   1.000000
   33        3.627231   1.000000
   34        3.627240   1.000000
   35        3.992121   1.000000
   36        3.992123   1.000000
   37        4.270082   1.000000
   38        4.270088   1.000000
   39        4.278765   1.000000
   40        4.370700   1.000000
   41        4.370702   1.000000
   42        4.620942   1.000000
   43        4.747947   1.000000
   44        4.747949   1.000000
   45        4.862802   1.000000
   46        4.865645   1.000000
   47        4.876483   1.000000
   48        5.031914   1.000000
   49        5.031923   1.000000
   50        5.269885   1.000000
   51        5.269886   1.000000
   52        5.485255   1.000000
   53        5.488831   1.000000
   54        5.579821   1.000000
   55        5.579833   1.000000
   56        5.735652   1.000000
   57        6.818868   1.000000
   58        6.818874   1.000000
   59        7.190185   1.000000
   60        7.318784   1.000000
   61        7.547575   1.000000
   62        7.650107   1.000000
   63        8.124479   1.000000
   64        8.124486   1.000000
   65        8.990706   1.000000
   66        9.278347   1.006683
   67        9.506572   0.312493
   68        9.506579   0.312436
   69        9.529109   0.156570
   70        9.567441   0.001151
   71        9.567454   0.001122
   72        9.651429  -0.019579
   73        9.829183  -0.000006
   74        9.829191  -0.000006
   75       10.148397  -0.000000
   76       10.148411  -0.000000
   77       10.265340  -0.000000
   78       10.293521  -0.000000
   79       10.293543  -0.000000
   80       10.436055  -0.000000
   81       10.527413  -0.000000
   82       10.527449  -0.000000
   83       10.542498  -0.000000
   84       10.647836  -0.000000
   85       10.769258  -0.000000
   86       10.797738  -0.000000
   87       10.797910  -0.000000
   88       10.827143  -0.000000
   89       10.829271  -0.000000
   90       10.885167  -0.000000

  0.4444444E+00  0.3839019E-15  0.3742002E-15  0.5486968E-02
    1       -4.664241   1.000000
    2       -4.162672   1.000000
    3       -3.512938   1.000000
    4       -3.512930   1.000000
    5       -3.199384   1.000000
    6       -3.199376   1.000000
    7       -2.300147   1.000000
    8       -2.298110   1.000000
    9       -2.049639   1.000000
   10       -2.049628   1.000000
   11       -2.045835   1.000000
   12       -2.045823   1.000000
   13        0.437596   1.000000
   14        0.437609   1.000000
   15        0.447202   1.000000
   16        0.447214   1.000000
   17        0.580590   1.000000
   18        0.595416   1.000000
   19        1.889004   1.000000
   20        1.889009   1.000000
   21        1.932848   1.000000
   22        2.088077   1.000000
   23        2.093783   1.000000
   24        2.169652   1.000000
   25        2.169657   1.000000
   26        2.266874   1.000000
   27        2.266881   1.000000
   28        2.341798   1.000000
   29        2.341805   1.000000
   30        2.751113   1.000000
   31        3.247054   1.000000
   32        3.247057   1.000000
   33        3.417652   1.000000
   34        3.417656   1.000000
   35        3.876063   1.000000
   36        3.876068   1.000000
   37        4.119411   1.000000
   38        4.119413   1.000000
   39        4.346322   1.000000
   40        4.346324   1.000000
   41        4.534068   1.000000
   42        4.534073   1.000000
   43        4.623233   1.000000
   44        4.773633   1.000000
   45        4.878023   1.000000
   46        4.886917   1.000000
   47        4.887473   1.000000
   48        5.050553   1.000000
   49        5.076696   1.000000
   50        5.076705   1.000000
   51        5.116450   1.000000
   52        5.116457   1.000000
   53        5.675829   1.000000
   54        5.768358   1.000000
   55        5.942784   1.000000
   56        5.942795   1.000000
   57        6.375762   1.000000
   58        6.375772   1.000000
   59        7.327902   1.000000
   60        7.361763   1.000000
   61        7.764311   1.000000
   62        7.822145   1.000000
   63        8.562211   1.000000
   64        8.562221   1.000000
   65        9.051392   1.000000
   66        9.051404   1.000000
   67        9.077758   1.000000
   68        9.081729   1.000000
   69        9.141245   1.000007
   70        9.178115   1.000068
   71        9.592867  -0.032174
   72        9.592875  -0.032178
   73        9.709333  -0.003215
   74        9.709341  -0.003214
   75       10.101334  -0.000000
   76       10.101347  -0.000000
   77       10.117213  -0.000000
   78       10.147351  -0.000000
   79       10.147364  -0.000000
   80       10.184149  -0.000000
   81       10.401793  -0.000000
   82       10.538129  -0.000000
   83       10.792703  -0.000000
   84       10.792819  -0.000000
   85       10.854698  -0.000000
   86       10.873495  -0.000000
   87       10.876410  -0.000000
   88       10.884101  -0.000000
   89       11.258076  -0.000000
   90       11.273277  -0.000000

  0.1111111E+00  0.1111111E+00  0.3742002E-15  0.2743484E-02
    1       -5.422548   1.000000
    2       -4.004073   1.000000
    3       -4.004065   1.000000
    4       -2.527027   1.000000
    5       -2.518998   1.000000
    6       -2.366903   1.000000
    7       -2.366887   1.000000
    8       -2.144861   1.000000
    9       -2.144851   1.000000
   10       -1.829715   1.000000
   11       -1.829701   1.000000
   12       -1.373849   1.000000
   13       -1.132877   1.000000
   14       -0.185337   1.000000
   15       -0.092634   1.000000
   16       -0.092626   1.000000
   17       -0.014367   1.000000
   18        0.323706   1.000000
   19        0.323714   1.000000
   20        0.379400   1.000000
   21        0.379407   1.000000
   22        1.630080   1.000000
   23        1.630088   1.000000
   24        2.722165   1.000000
   25        2.722176   1.000000
   26        2.754089   1.000000
   27        2.754100   1.000000
   28        3.322989   1.000000
   29        3.503200   1.000000
   30        3.503212   1.000000
   31        3.882158   1.000000
   32        3.882166   1.000000
   33        3.988160   1.000000
   34        4.138372   1.000000
   35        4.230077   1.000000
   36        4.296954   1.000000
   37        4.343381   1.000000
   38        4.343390   1.000000
   39        4.450778   1.000000
   40        4.460692   1.000000
   41        4.460702   1.000000
   42        4.551800   1.000000
   43        4.551806   1.000000
   44        4.774508   1.000000
   45        4.801793   1.000000
   46        5.049693   1.000000
   47        5.049701   1.000000
   48        5.191643   1.000000
   49        5.191655   1.000000
   50        5.430866   1.000000
   51        5.430869   1.000000
   52        5.609017   1.000000
   53        5.616641   1.000000
   54        5.616648   1.000000
   55        5.616681   1.000000
   56        5.950727   1.000000
   57        5.990066   1.000000
   58        6.699534   1.000000
   59        7.293588   1.000000
   60        7.293592   1.000000
   61        7.595893   1.000000
   62        7.595895   1.000000
   63        7.881414   1.000000
   64        8.500015   1.000000
   65        8.824570   1.000000
   66        9.371301   1.033698
   67        9.570796  -0.005902
   68        9.570807  -0.005922
   69        9.775652  -0.000146
   70        9.775657  -0.000146
   71        9.898533  -0.000000
   72        9.898541  -0.000000
   73        9.931883  -0.000000
   74       10.070294  -0.000000
   75       10.187870  -0.000000
   76       10.187871  -0.000000
   77       10.195774  -0.000000
   78       10.276580  -0.000000
   79       10.276609  -0.000000
   80       10.338724  -0.000000
   81       10.338787  -0.000000
   82       10.465899  -0.000000
   83       10.549910  -0.000000
   84       10.549929  -0.000000
   85       10.567238  -0.000000
   86       10.567320  -0.000000
   87       10.655607  -0.000000
   88       10.656792  -0.000000
   89       10.751480  -0.000000
   90       10.983514  -0.000000

  0.2222222E+00  0.1111111E+00  0.3742002E-15  0.5486968E-02
    1       -5.183905   1.000000
    2       -3.846839   1.000000
    3       -3.846831   1.000000
    4       -3.213997   1.000000
    5       -2.756798   1.000000
    6       -2.630696   1.000000
    7       -2.630685   1.000000
    8       -2.352127   1.000000
    9       -2.352116   1.000000
   10       -1.727469   1.000000
   11       -1.727456   1.000000
   12       -1.469380   1.000000
   13       -0.684272   1.000000
   14       -0.087037   1.000000
   15       -0.087028   1.000000
   16        0.376313   1.000000
   17        0.585855   1.000000
   18        0.585865   1.000000
   19        0.752183   1.000000
   20        0.998474   1.000000
   21        0.998481   1.000000
   22        1.813337   1.000000
   23        1.813344   1.000000
   24        2.478045   1.000000
   25        2.478054   1.000000
   26        2.539562   1.000000
   27        2.649619   1.000000
   28        2.649628   1.000000
   29        3.494699   1.000000
   30        3.584446   1.000000
   31        3.584456   1.000000
   32        3.730770   1.000000
   33        3.781616   1.000000
   34        3.781620   1.000000
   35        4.046490   1.000000
   36        4.046497   1.000000
   37        4.139253   1.000000
   38        4.139254   1.000000
   39        4.226067   1.000000
   40        4.362831   1.000000
   41        4.551072   1.000000
   42        4.551081   1.000000
   43        4.637612   1.000000
   44        4.767522   1.000000
   45        4.788796   1.000000
   46        4.963366   1.000000
   47        4.963369   1.000000
   48        5.182462   1.000000
   49        5.182471   1.000000
   50        5.192851   1.000000
   51        5.192855   1.000000
   52        5.386081   1.000000
   53        5.386092   1.000000
   54        5.580848   1.000000
   55        5.761431   1.000000
   56        5.813978   1.000000
   57        6.542733   1.000000
   58        7.018925   1.000000
   59        7.018928   1.000000
   60        7.342690   1.000000
   61        7.409466   1.000000
   62        7.898770   1.000000
   63        7.898777   1.000000
   64        8.251361   1.000000
   65        8.779850   1.000000
   66        9.286708   1.008780
   67        9.638980  -0.025282
   68        9.638988  -0.025278
   69        9.690961  -0.006294
   70        9.690973  -0.006291
   71        9.770554  -0.000192
   72        9.894031  -0.000000
   73        9.923680  -0.000000
   74        9.923691  -0.000000
   75       10.137398  -0.000000
   76       10.137404  -0.000000
   77       10.147988  -0.000000
   78       10.148084  -0.000000
   79       10.179639  -0.000000
   80       10.449362  -0.000000
   81       10.478793  -0.000000
   82       10.478830  -0.000000
   83       10.599869  -0.000000
   84       10.630309  -0.000000
   85       10.632356  -0.000000
   86       10.715508  -0.000000
   87       10.758354  -0.000000
   88       10.759324  -0.000000
   89       10.772335  -0.000000
   90       10.931676  -0.000000

  0.3333333E+00  0.1111111E+00  0.3742002E-15  0.5486968E-02
    1       -4.833893   1.000000
    2       -3.840002   1.000000
    3       -3.621024   1.000000
    4       -3.621016   1.000000
    5       -2.998420   1.000000
    6       -2.998411   1.000000
    7       -2.897038   1.000000
    8       -2.414178   1.000000
    9       -2.414167   1.000000
   10       -1.668060   1.000000
   11       -1.668047   1.000000
   12       -1.591740   1.000000
   13       -0.099387   1.000000
   14       -0.046854   1.000000
   15       -0.046842   1.000000
   16        0.847580   1.000000
   17        0.847592   1.000000
   18        0.875955   1.000000
   19        1.567262   1.000000
   20        1.679080   1.000000
   21        1.679086   1.000000
   22        1.802791   1.000000
   23        2.042127   1.000000
   24        2.042130   1.000000
   25        2.287607   1.000000
   26        2.287612   1.000000
   27        2.489754   1.000000
   28        2.489762   1.000000
   29        2.885736   1.000000
   30        3.082543   1.000000
   31        3.327889   1.000000
   32        3.327894   1.000000
   33        3.546909   1.000000
   34        3.546913   1.000000
   35        3.842425   1.000000
   36        3.842430   1.000000
   37        4.011246   1.000000
   38        4.011250   1.000000
   39        4.372868   1.000000
   40        4.372869   1.000000
   41        4.504612   1.000000
   42        4.545942   1.000000
   43        4.700773   1.000000
   44        4.700773   1.000000
   45        4.739418   1.000000
   46        4.757272   1.000000
   47        4.859290   1.000000
   48        4.963578   1.000000
   49        4.963583   1.000000
   50        5.147221   1.000000
   51        5.278753   1.000000
   52        5.278762   1.000000
   53        5.723253   1.000000
   54        5.723263   1.000000
   55        5.889505   1.000000
   56        5.917057   1.000000
   57        6.606849   1.000000
   58        6.606857   1.000000
   59        7.026167   1.000000
   60        7.114370   1.000000
   61        7.918845   1.000000
   62        7.997244   1.000000
   63        8.294986   1.000000
   64        8.294996   1.000000
   65        8.885976   1.000000
   66        9.169361   1.000041
   67        9.233055   1.001121
   68        9.233067   1.001122
   69        9.318542   1.020669
   70        9.395452   1.008378
   71        9.702586  -0.004156
   72        9.702593  -0.004154
   73        9.719527  -0.002137
   74        9.719539  -0.002136
   75        9.981030  -0.000000
   76        9.981041  -0.000000
   77       10.028959  -0.000000
   78       10.214622  -0.000000
   79       10.423010  -0.000000
   80       10.423019  -0.000000
   81       10.466843  -0.000000
   82       10.613211  -0.000000
   83       10.670500  -0.000000
   84       10.670527  -0.000000
   85       10.734262  -0.000000
   86       10.735310  -0.000000
   87       10.735848  -0.000000
   88       10.971830  -0.000000
   89       10.983218  -0.000000
   90       11.053750  -0.000000

  0.4444444E+00  0.1111111E+00  0.3742002E-15  0.5486968E-02
    1       -4.385419   1.000000
    2       -4.380929   1.000000
    3       -3.337594   1.000000
    4       -3.337585   1.000000
    5       -3.336545   1.000000
    6       -3.336537   1.000000
    7       -2.943257   1.000000
    8       -2.429819   1.000000
    9       -2.429809   1.000000
   10       -1.650645   1.000000
   11       -1.650632   1.000000
   12       -1.636497   1.000000
   13       -0.026146   1.000000
   14       -0.026133   1.000000
   15        0.277614   1.000000
   16        0.991890   1.000000
   17        0.991902   1.000000
   18        1.127933   1.000000
   19        1.367748   1.000000
   20        2.062214   1.000000
   21        2.062222   1.000000
   22        2.197825   1.000000
   23        2.197828   1.000000
   24        2.233043   1.000000
   25        2.233045   1.000000
   26        2.346710   1.000000
   27        2.361158   1.000000
   28        2.378223   1.000000
   29        2.378229   1.000000
   30        2.602205   1.000000
   31        3.126393   1.000000
   32        3.126394   1.000000
   33        3.184103   1.000000
   34        3.184104   1.000000
   35        3.939695   1.000000
   36        3.939699   1.000000
   37        3.993108   1.000000
   38        3.993114   1.000000
   39        4.207697   1.000000
   40        4.207704   1.000000
   41        4.588142   1.000000
   42        4.588145   1.000000
   43        4.634347   1.000000
   44        4.640062   1.000000
   45        4.698557   1.000000
   46        4.722962   1.000000
   47        4.916853   1.000000
   48        4.916862   1.000000
   49        4.939774   1.000000
   50        5.047776   1.000000
   51        5.330468   1.000000
   52        5.330476   1.000000
   53        5.937923   1.000000
   54        5.958399   1.000000
   55        6.163180   1.000000
   56        6.163189   1.000000
   57        6.177837   1.000000
   58        6.177847   1.000000
   59        6.870109   1.000000
   60        7.407518   1.000000
   61        7.743943   1.000000
   62        8.393385   1.000000
   63        8.729163   1.000000
   64        8.729174   1.000000
   65        8.752742   1.000000
   66        8.752753   1.000000
   67        8.993382   1.000000
   68        9.025514   1.000000
   69        9.034863   1.000000
   70        9.124611   1.000002
   71        9.647573  -0.021318
   72        9.647584  -0.021313
   73        9.804353  -0.000028
   74        9.804361  -0.000028
   75        9.822618  -0.000009
   76        9.822628  -0.000009
   77        9.925645  -0.000000
   78       10.050650  -0.000000
   79       10.453462  -0.000000
   80       10.453473  -0.000000
   81       10.455616  -0.000000
   82       10.556758  -0.000000
   83       10.597240  -0.000000
   84       10.746092  -0.000000
   85       10.746125  -0.000000
   86       10.967369  -0.000000
   87       10.968731  -0.000000
   88       10.973258  -0.000000
   89       11.246747  -0.000000
   90       11.275918  -0.000000

 -0.4444444E+00  0.1111111E+00  0.3742002E-15  0.5486968E-02
    1       -4.837967   1.000000
    2       -3.835390   1.000000
    3       -3.625481   1.000000
    4       -3.625473   1.000000
    5       -3.007081   1.000000
    6       -3.007071   1.000000
    7       -2.895432   1.000000
    8       -2.405210   1.000000
    9       -2.405200   1.000000
   10       -1.668091   1.000000
   11       -1.668078   1.000000
   12       -1.599935   1.000000
   13       -0.070884   1.000000
   14       -0.048767   1.000000
   15       -0.048755   1.000000
   16        0.861632   1.000000
   17        0.897612   1.000000
   18        0.897623   1.000000
   19        1.485027   1.000000
   20        1.557807   1.000000
   21        1.557813   1.000000
   22        1.834010   1.000000
   23        2.111285   1.000000
   24        2.111292   1.000000
   25        2.320468   1.000000
   26        2.320477   1.000000
   27        2.511163   1.000000
   28        2.511171   1.000000
   29        2.905246   1.000000
   30        3.114780   1.000000
   31        3.255807   1.000000
   32        3.255809   1.000000
   33        3.693531   1.000000
   34        3.693536   1.000000
   35        3.698450   1.000000
   36        3.698455   1.000000
   37        4.020661   1.000000
   38        4.020664   1.000000
   39        4.365720   1.000000
   40        4.473533   1.000000
   41        4.473538   1.000000
   42        4.499177   1.000000
   43        4.503092   1.000000
   44        4.503099   1.000000
   45        4.601815   1.000000
   46        4.726311   1.000000
   47        4.908034   1.000000
   48        4.908043   1.000000
   49        5.087558   1.000000
   50        5.352779   1.000000
   51        5.371836   1.000000
   52        5.371842   1.000000
   53        5.800535   1.000000
   54        5.800547   1.000000
   55        5.851239   1.000000
   56        5.941339   1.000000
   57        6.649420   1.000000
   58        6.649427   1.000000
   59        7.033934   1.000000
   60        7.208408   1.000000
   61        7.793305   1.000000
   62        7.882770   1.000000
   63        8.254600   1.000000
   64        8.254610   1.000000
   65        8.900451   1.000000
   66        9.171671   1.000047
   67        9.244933   1.001879
   68        9.244945   1.001880
   69        9.329382   1.025660
   70        9.456819   0.719159
   71        9.665958  -0.013605
   72        9.665967  -0.013602
   73        9.734269  -0.001132
   74        9.734281  -0.001132