   57   57    1    1
  0.1247157E+02  0.6078000E-09  0.6078000E-09  0.2222000E-08  0.5000000E-15
   1.0000000000000000E-004
  CAR 
 Name                                    
    201     41    132

  0.3742002E-15  0.3742002E-15  0.1262379E-14  0.1234568E-01
    1      -11.051667   1.000000
    2      -10.479989   1.000000
    3       -9.735949   1.000000
    4       -9.031956   1.000000
    5       -8.164840   1.000000
    6       -8.067040   1.000000
    7       -7.700259   1.000000
    8       -7.563105   1.000000
    9       -7.293322   1.000000
   10       -7.272835   1.000000
   11       -7.267824   1.000000
   12       -7.190847   1.000000
   13       -7.163248   1.000000
   14       -7.109561   1.000000
   15       -6.963051   1.000000
   16       -6.911648   1.000000
   17       -6.878267   1.000000
   18       -6.804617   1.000000
   19       -6.776836   1.000000
   20       -6.530117   1.000000
   21       -6.493763   1.000000
   22       -6.310096   1.000000
   23       -5.825010   1.000000
   24       -5.663579   1.000000
   25       -5.592081   1.000000
   26       -5.409041   1.000000
   27       -5.344031   1.000000
   28       -5.318916   1.000000
   29       -5.244216   1.000000
   30       -5.239136   1.000000
   31       -4.759170   1.000000
   32       -4.233395   1.000000
   33       -4.115462   1.000000
   34       -4.098315   1.000000
   35       -4.048607   1.000000
   36       -3.914055   1.000000
   37       -3.719093   1.000000
   38       -3.037950   1.000000
   39       -2.759469   1.000000
   40       -2.753220   1.000000
   41       -2.663973   1.000000
   42       -2.301237   1.000000
   43       -2.251687   1.000000
   44       -2.107760   1.000000
   45       -2.035672   1.000000
   46       -1.995508   1.000000
   47       -1.957564   1.000000
   48       -1.935916   1.000000
   49       -1.647481   1.000000
   50       -1.553444   1.000000
   51       -1.526699   1.000000
   52       -1.424014   1.000000
   53       -1.415701   1.000000
   54       -1.316326   1.000000
   55       -1.298004   1.000000
   56       -1.196090   1.000000
   57       -1.149554   1.000000
   58       -1.068621   1.000000
   59       -1.005013   1.000000
   60       -0.944342   1.000000
   61       -0.879445   1.000000
   62       -0.875734   1.000000
   63       -0.772457   1.000000
   64       -0.733583   1.000000
   65       -0.580373   1.000000
   66       -0.562600   1.000000
   67       -0.554001   1.000000
   68       -0.431536   1.000000
   69       -0.373417   1.000000
   70       -0.343070   1.000000
   71       -0.228273   1.000000
   72       -0.189705   1.000000
   73       -0.163695   1.000000
   74        0.033126   1.000000
   75        0.101659   1.000000
   76        0.270666   1.000000
   77        0.271842   1.000000
   78        0.404731   1.000000
   79        0.506058   1.000000
   80        0.621067   1.000000
   81        0.735816   1.000000
   82        0.841622   1.000000
   83        0.899417   1.000000
   84        1.167940   1.000000
   85        1.386807   1.000000
   86        1.469274   1.000000
   87        1.640899   1.000000
   88        1.702781   1.000000
   89        1.806877   1.000000
   90        1.924368   1.000000
   91        2.003047   1.000000
   92        2.069337   1.000000
   93        2.094006   1.000000
   94        2.104361   1.000000
   95        2.219305   1.000000
   96        2.239240   1.000000
   97        2.500105   1.000329
   98        2.518504   1.000520
   99        3.127394   0.207444
  100        3.172070   0.081667
  101        3.195853   0.034938
  102        3.257778  -0.027514
  103        3.414428  -0.014124
  104        3.443181  -0.009312
  105        3.523336  -0.002181
  106        3.642301  -0.000125
  107        3.747139  -0.000005
  108        3.996884  -0.000000
  109        4.036115  -0.000000
  110        4.058691  -0.000000
  111        4.098194  -0.000000
  112        4.116491  -0.000000
  113        4.136726  -0.000000
  114        4.212504  -0.000000
  115        4.232331  -0.000000
  116        4.269552  -0.000000
  117        4.342899  -0.000000
  118        4.405679  -0.000000
  119        4.436955  -0.000000
  120        4.507079  -0.000000
  121        4.541607  -0.000000
  122        4.595088  -0.000000
  123        4.656122  -0.000000
  124        4.752697  -0.000000
  125        4.768414  -0.000000
  126        4.973960  -0.000000
  127        5.335720  -0.000000
  128        5.971783  -0.000000
  129        6.454082  -0.000000
  130        6.579212  -0.000000
  131        6.665693  -0.000000
  132        6.859359  -0.000000

  0.1111111E+00  0.3756941E-15  0.1262379E-14  0.2469136E-01
    1      -10.994329   1.000000
    2      -10.427478   1.000000
    3       -9.692318   1.000000
    4       -8.998781   1.000000
    5       -8.133594   1.000000
    6       -8.087394   1.000000
    7       -7.839234   1.000000
    8       -7.829473   1.000000
    9       -7.573111   1.000000
   10       -7.417178   1.000000
   11       -7.392238   1.000000
   12       -7.375370   1.000000
   13       -7.331302   1.000000
   14       -7.320690   1.000000
   15       -7.069464   1.000000
   16       -6.869884   1.000000
   17       -6.663683   1.000000
   18       -6.610163   1.000000
   19       -6.425319   1.000000
   20       -6.332951   1.000000
   21       -6.241362   1.000000
   22       -6.096811   1.000000
   23       -5.841026   1.000000
   24       -5.622266   1.000000
   25       -5.581103   1.000000
   26       -5.406689   1.000000
   27       -5.314734   1.000000
   28       -5.297273   1.000000
   29       -5.177474   1.000000
   30       -5.112736   1.000000
   31       -4.704110   1.000000
   32       -4.118641   1.000000
   33       -4.004093   1.000000
   34       -3.993656   1.000000
   35       -3.944515   1.000000
   36       -3.772532   1.000000
   37       -3.623252   1.000000
   38       -3.023311   1.000000
   39       -2.778239   1.000000
   40       -2.723679   1.000000
   41       -2.681711   1.000000
   42       -2.429595   1.000000
   43       -2.244637   1.000000
   44       -2.184949   1.000000
   45       -2.106586   1.000000
   46       -2.068497   1.000000
   47       -1.990443   1.000000
   48       -1.947568   1.000000
   49       -1.759462   1.000000
   50       -1.683721   1.000000
   51       -1.518838   1.000000
   52       -1.480075   1.000000
   53       -1.442152   1.000000
   54       -1.372722   1.000000
   55       -1.261761   1.000000
   56       -1.182666   1.000000
   57       -1.151036   1.000000
   58       -1.097903   1.000000
   59       -1.001421   1.000000
   60       -0.952436   1.000000
   61       -0.915176   1.000000
   62       -0.857350   1.000000
   63       -0.835267   1.000000
   64       -0.751034   1.000000
   65       -0.632108   1.000000
   66       -0.602155   1.000000
   67       -0.577207   1.000000
   68       -0.515408   1.000000
   69       -0.394673   1.000000
   70       -0.347497   1.000000
   71       -0.271807   1.000000
   72       -0.196592   1.000000
   73       -0.108091   1.000000
   74       -0.021283   1.000000
   75        0.068142   1.000000
   76        0.115341   1.000000
   77        0.316634   1.000000
   78        0.384922   1.000000
   79        0.455184   1.000000
   80        0.623073   1.000000
   81        0.654007   1.000000
   82        0.788787   1.000000
   83        0.816706   1.000000
   84        1.100848   1.000000
   85        1.375188   1.000000
   86        1.491816   1.000000
   87        1.521038   1.000000
   88        1.551491   1.000000
   89        1.599664   1.000000
   90        1.841455   1.000000
   91        1.915288   1.000000
   92        1.998365   1.000000
   93        2.039042   1.000000
   94        2.055578   1.000000
   95        2.221824   1.000000
   96        2.379394   1.000010
   97        2.572249   1.001768
   98        2.773925   1.031973
   99        3.026611   0.609835
  100        3.146037   0.149084
  101        3.202608   0.024187
  102        3.286415  -0.034922
  103        3.365728  -0.024706
  104        3.426014  -0.012027
  105        3.669456  -0.000058
  106        3.761386  -0.000003
  107        3.858116  -0.000000
  108        3.989127  -0.000000
  109        4.012239  -0.000000
  110        4.042107  -0.000000
  111        4.063477  -0.000000
  112        4.114219  -0.000000
  113        4.125319  -0.000000
  114        4.173048  -0.000000
  115        4.238915  -0.000000
  116        4.266237  -0.000000
  117        4.290909  -0.000000
  118        4.326761  -0.000000
  119        4.374433  -0.000000
  120        4.465806  -0.000000
  121        4.493555  -0.000000
  122        4.519487  -0.000000
  123        4.560198  -0.000000
  124        4.655179  -0.000000
  125        4.760770  -0.000000
  126        4.923344  -0.000000
  127        5.333996  -0.000000
  128        5.509369  -0.000000
  129        6.145072  -0.000000
  130        6.583213  -0.000000
  131        6.875754  -0.000000
  132        6.930752  -0.000000

  0.2222222E+00  0.3503827E-15  0.1262379E-14  0.2469136E-01
    1      -10.824265   1.000000
    2      -10.272243   1.000000
    3       -9.564563   1.000000
    4       -8.902188   1.000000
    5       -8.493065   1.000000
    6       -8.259126   1.000000
    7       -8.198538   1.000000
    8       -8.010636   1.000000
    9       -7.657982   1.000000
   10       -7.651869   1.000000
   11       -7.597935   1.000000
   12       -7.578422   1.000000
   13       -7.532837   1.000000
   14       -7.472419   1.000000
   15       -7.357598   1.000000
   16       -6.959109   1.000000
   17       -6.469164   1.000000
   18       -6.303616   1.000000
   19       -6.197651   1.000000
   20       -6.133100   1.000000
   21       -5.991683   1.000000
   22       -5.841330   1.000000
   23       -5.533514   1.000000
   24       -5.450624   1.000000
   25       -5.389428   1.000000
   26       -5.266106   1.000000
   27       -5.174017   1.000000
   28       -5.143370   1.000000
   29       -4.855393   1.000000
   30       -4.747131   1.000000
   31       -4.537621   1.000000
   32       -4.001965   1.000000
   33       -3.816753   1.000000
   34       -3.777838   1.000000
   35       -3.661448   1.000000
   36       -3.413536   1.000000
   37       -3.225407   1.000000
   38       -3.001910   1.000000
   39       -2.836232   1.000000
   40       -2.817319   1.000000
   41       -2.732723   1.000000
   42       -2.671825   1.000000
   43       -2.557974   1.000000
   44       -2.523996   1.000000
   45       -2.196876   1.000000
   46       -2.132601   1.000000
   47       -2.054266   1.000000
   48       -1.944967   1.000000
   49       -1.871486   1.000000
   50       -1.704590   1.000000
   51       -1.636522   1.000000
   52       -1.559163   1.000000
   53       -1.471121   1.000000
   54       -1.441875   1.000000
   55       -1.372650   1.000000
   56       -1.349234   1.000000
   57       -1.272826   1.000000
   58       -1.166052   1.000000
   59       -1.042988   1.000000
   60       -1.007349   1.000000
   61       -0.968479   1.000000
   62       -0.927762   1.000000
   63       -0.881641   1.000000
   64       -0.801281   1.000000
   65       -0.792212   1.000000
   66       -0.707856   1.000000
   67       -0.633638   1.000000
   68       -0.562209   1.000000
   69       -0.542795   1.000000
   70       -0.458000   1.000000
   71       -0.367746   1.000000
   72       -0.325724   1.000000
   73       -0.155492   1.000000
   74       -0.071923   1.000000
   75        0.003105   1.000000
   76        0.073639   1.000000
   77        0.128171   1.000000
   78        0.220200   1.000000
   79        0.485690   1.000000
   80        0.521223   1.000000
   81        0.670133   1.000000
   82        0.771020   1.000000
   83        0.840283   1.000000
   84        0.936608   1.000000
   85        1.182647   1.000000
   86        1.244050   1.000000
   87        1.307562   1.000000
   88        1.483888   1.000000
   89        1.545549   1.000000
   90        1.728124   1.000000
   91        1.807793   1.000000
   92        1.817000   1.000000
   93        1.979211   1.000000
   94        2.001545   1.000000
   95        2.200645   1.000000
   96        2.393094   1.000016
   97        2.500044   1.000329
   98        2.767347   1.030730
   99        2.915986   0.954219
  100        3.187432   0.049879
  101        3.246739  -0.021680
  102        3.405552  -0.015866
  103        3.551030  -0.001205
  104        3.628357  -0.000182
  105        3.710034  -0.000017
  106        3.760206  -0.000003
  107        3.832479  -0.000000
  108        3.850217  -0.000000
  109        3.905503  -0.000000
  110        3.936701  -0.000000
  111        3.974146  -0.000000
  112        4.040577  -0.000000
  113        4.104982  -0.000000
  114        4.169817  -0.000000
  115        4.189125  -0.000000
  116        4.208599  -0.000000
  117        4.251258  -0.000000
  118        4.315379  -0.000000
  119        4.345714  -0.000000
  120        4.369629  -0.000000
  121        4.432565  -0.000000
  122        4.448190  -0.000000
  123        4.538009  -0.000000
  124        4.558370  -0.000000
  125        4.623092  -0.000000
  126        4.715427  -0.000000
  127        4.816578  -0.000000
  128        4.839815  -0.000000
  129        4.952535  -0.000000
  130        5.189398  -0.000000
  131        5.289039  -0.000000
  132        6.392875  -0.000000

  0.3333333E+00  0.3779629E-15  0.1262379E-14  0.2469136E-01
    1      -10.547976   1.000000
    2      -10.021803   1.000000
    3       -9.363310   1.000000
    4       -9.111752   1.000000
    5       -8.770486   1.000000
    6       -8.729614   1.000000
    7       -8.436664   1.000000
    8       -7.848420   1.000000
    9       -7.812283   1.000000
   10       -7.773530   1.000000
   11       -7.755148   1.000000
   12       -7.744755   1.000000
   13       -7.675494   1.000000
   14       -7.600187   1.000000
   15       -7.511024   1.000000
   16       -7.021439   1.000000
   17       -6.836695   1.000000
   18       -6.249807   1.000000
   19       -5.951818   1.000000
   20       -5.934504   1.000000
   21       -5.582445   1.000000
   22       -5.526094   1.000000
   23       -5.365250   1.000000
   24       -5.293336   1.000000
   25       -5.256439   1.000000
   26       -5.088852   1.000000
   27       -4.621587   1.000000
   28       -4.538168   1.000000
   29       -4.484492   1.000000
   30       -4.284608   1.000000
   31       -4.161468   1.000000
   32       -3.813394   1.000000
   33       -3.569850   1.000000
   34       -3.503687   1.000000
   35       -3.395472   1.000000
   36       -3.259240   1.000000
   37       -3.190358   1.000000
   38       -3.147749   1.000000
   39       -3.089860   1.000000
   40       -3.046665   1.000000
   41       -3.008657   1.000000
   42       -2.884831   1.000000
   43       -2.619605   1.000000
   44       -2.416469   1.000000
   45       -2.267298   1.000000
   46       -2.216492   1.000000
   47       -2.087733   1.000000
   48       -2.037754   1.000000
   49       -1.954907   1.000000
   50       -1.854733   1.000000
   51       -1.772020   1.000000
   52       -1.690852   1.000000
   53       -1.635127   1.000000
   54       -1.597864   1.000000
   55       -1.517417   1.000000
   56       -1.461033   1.000000
   57       -1.402347   1.000000
   58       -1.333382   1.000000
   59       -1.178321   1.000000
   60       -1.138479   1.000000
   61       -1.095209   1.000000
   62       -1.057083   1.000000
   63       -1.011599   1.000000
   64       -0.955547   1.000000
   65       -0.917631   1.000000
   66       -0.831620   1.000000
   67       -0.741581   1.000000
   68       -0.688858   1.000000
   69       -0.580892   1.000000
   70       -0.511272   1.000000
   71       -0.429169   1.000000
   72       -0.305548   1.000000
   73       -0.184248   1.000000
   74       -0.119129   1.000000
   75       -0.086447   1.000000
   76       -0.013068   1.000000
   77        0.088884   1.000000
   78        0.118685   1.000000
   79        0.248312   1.000000
   80        0.417251   1.000000
   81        0.587119   1.000000
   82        0.662144   1.000000
   83        0.895964   1.000000
   84        0.921330   1.000000
   85        1.032291   1.000000
   86        1.293981   1.000000
   87        1.356035   1.000000
   88        1.393239   1.000000
   89        1.488446   1.000000
   90        1.671373   1.000000
   91        1.700898   1.000000
   92        1.726325   1.000000
   93        1.894562   1.000000
   94        1.976190   1.000000
   95        2.032175   1.000000
   96        2.290627   1.000000
   97        2.631616   1.005592
   98        2.679979   1.012089
   99        2.743030   1.025428
  100        3.069706   0.428814
  101        3.254255  -0.025858
  102        3.281820  -0.034369
  103        3.370538  -0.023593
  104        3.425752  -0.012072
  105        3.561077  -0.000961
  106        3.608418  -0.000306
  107        3.755546  -0.000004
  108        3.778453  -0.000002
  109        3.846507  -0.000000
  110        3.881320  -0.000000
  111        3.922630  -0.000000
  112        3.969829  -0.000000
  113        4.022393  -0.000000
  114        4.123944  -0.000000
  115        4.159453  -0.000000
  116        4.246981  -0.000000
  117        4.275666  -0.000000
  118        4.326791  -0.000000
  119        4.349253  -0.000000
  120        4.401205  -0.000000
  121        4.454931  -0.000000
  122        4.471748  -0.000000
  123        4.583667  -0.000000
  124        4.637437  -0.000000
  125        4.682836  -0.000000
  126        4.774460  -0.000000
  127        4.812072  -0.000000
  128        4.965322  -0.000000
  129        5.082339  -0.000000
  130        5.199332  -0.000000
  131        5.315121  -0.000000
  132        6.269530  -0.000000

  0.4444444E+00  0.3698634E-15  0.1262379E-14  0.2469136E-01
    1      -10.187644   1.000000
    2       -9.703456   1.000000
    3       -9.638275   1.000000
    4       -9.227913   1.000000
    5       -9.098209   1.000000
    6       -8.745365   1.000000
    7       -8.558579   1.000000
    8       -8.037261   1.000000
    9       -7.900213   1.000000
   10       -7.853155   1.000000
   11       -7.803281   1.000000
   12       -7.728681   1.000000
   13       -7.678911   1.000000
   14       -7.569250   1.000000
   15       -7.505710   1.000000
   16       -7.221753   1.000000
   17       -7.052840   1.000000
   18       -6.261913   1.000000
   19       -5.882753   1.000000
   20       -5.869502   1.000000
   21       -5.279557   1.000000
   22       -5.207743   1.000000
   23       -5.129295   1.000000
   24       -5.125273   1.000000
   25       -5.098435   1.000000
   26       -5.039795   1.000000
   27       -4.312208   1.000000
   28       -4.143567   1.000000
   29       -3.941447   1.000000
   30       -3.757598   1.000000
   31       -3.726542   1.000000
   32       -3.686161   1.000000
   33       -3.625094   1.000000
   34       -3.522451   1.000000
   35       -3.434512   1.000000
   36       -3.355656   1.000000
   37       -3.286101   1.000000
   38       -3.254465   1.000000
   39       -3.163338   1.000000
   40       -3.119933   1.000000
   41       -3.044389   1.000000
   42       -2.968133   1.000000
   43       -2.855061   1.000000
   44       -2.680169   1.000000
   45       -2.453800   1.000000
   46       -2.235940   1.000000
   47       -2.168558   1.000000
   48       -2.056503   1.000000
   49       -2.021216   1.000000
   50       -1.921341   1.000000
   51       -1.818531   1.000000
   52       -1.768578   1.000000
   53       -1.721322   1.000000
   54       -1.600659   1.000000
   55       -1.550387   1.000000
   56       -1.496588   1.000000
   57       -1.425752   1.000000
   58       -1.382333   1.000000
   59       -1.327680   1.000000
   60       -1.247889   1.000000
   61       -1.209307   1.000000
   62       -1.137205   1.000000
   63       -1.087563   1.000000
   64       -1.035768   1.000000
   65       -0.973262   1.000000
   66       -0.919651   1.000000
   67       -0.827982   1.000000
   68       -0.749643   1.000000
   69       -0.682404   1.000000
   70       -0.559242   1.000000
   71       -0.519654   1.000000
   72       -0.421122   1.000000
   73       -0.280153   1.000000
   74       -0.142315   1.000000
   75       -0.131368   1.000000
   76       -0.067234   1.000000
   77        0.007590   1.000000
   78        0.195734   1.000000
   79        0.238065   1.000000
   80        0.274440   1.000000
   81        0.617186   1.000000
   82        0.665014   1.000000
   83        0.758742   1.000000
   84        0.957906   1.000000
   85        1.049682   1.000000
   86        1.250802   1.000000
   87        1.338752   1.000000
   88        1.434556   1.000000
   89        1.511524   1.000000
   90        1.643167   1.000000
   91        1.710595   1.000000
   92        1.768322   1.000000
   93        1.793722   1.000000
   94        1.977003   1.000000
   95        2.017726   1.000000
   96        2.344503   1.000003
   97        2.578554   1.002018
   98        2.738579   1.024400
   99        2.765796   1.030421
  100        2.823387   1.034429
  101        2.884005   1.000476
  102        3.098509   0.312141
  103        3.168125   0.090789
  104        3.282592  -0.034476
  105        3.417418  -0.013563
  106        3.549379  -0.001250
  107        3.657045  -0.000083
  108        3.718924  -0.000013
  109        3.762265  -0.000003
  110        3.796302  -0.000001
  111        3.832737  -0.000000
  112        3.889318  -0.000000
  113        3.966551  -0.000000
  114        4.068318  -0.000000
  115        4.101406  -0.000000
  116        4.202564  -0.000000
  117        4.240208  -0.000000
  118        4.285542  -0.000000
  119        4.325095  -0.000000
  120        4.410984  -0.000000
  121        4.467656  -0.000000
  122        4.512982  -0.000000
  123        4.566675  -0.000000
  124        4.687948  -0.000000
  125        4.780681  -0.000000
  126        4.801682  -0.000000
  127        4.852741  -0.000000
  128        4.948896  -0.000000
  129        5.197487  -0.000000
  130        5.385157  -0.000000
  131        5.444428  -0.000000
  132        5.481759  -0.000000

  0.3742002E-15  0.1111111E+00  0.1262379E-14  0.2469136E-01
    1      -10.994329   1.000000
    2      -10.427474   1.000000
    3       -9.692319   1.000000
    4       -8.998800   1.000000
    5       -8.133567   1.000000
    6       -8.087384   1.000000
    7       -7.839141   1.000000
    8       -7.830030   1.000000
    9       -7.573050   1.000000
   10       -7.417001   1.000000
   11       -7.392053   1.000000
   12       -7.375243   1.000000
   13       -7.330737   1.000000
   14       -7.321253   1.000000
   15       -7.069392   1.000000
   16       -6.869568   1.000000
   17       -6.664715   1.000000
   18       -6.609857   1.000000
   19       -6.424501   1.000000
   20       -6.332597   1.000000
   21       -6.242070   1.000000
   22       -6.096806   1.000000
   23       -5.841349   1.000000
   24       -5.621776   1.000000
   25       -5.581476   1.000000
   26       -5.406631   1.000000
   27       -5.314807   1.000000
   28       -5.297723   1.000000
   29       -5.177045   1.000000
   30       -5.112917   1.000000
   31       -4.704247   1.000000
   32       -4.117978   1.000000
   33       -4.004476   1.000000
   34       -3.993577   1.000000
   35       -3.944259   1.000000
   36       -3.772235   1.000000
   37       -3.623738   1.000000
   38       -3.023321   1.000000
   39       -2.778459   1.000000
   40       -2.723030   1.000000
   41       -2.682218   1.000000
   42       -2.429588   1.000000
   43       -2.244740   1.000000
   44       -2.184780   1.000000
   45       -2.106478   1.000000
   46       -2.068550   1.000000
   47       -1.990706   1.000000
   48       -1.947212   1.000000
   49       -1.759639   1.000000
   50       -1.684041   1.000000
   51       -1.518348   1.000000
   52       -1.480136   1.000000
   53       -1.441985   1.000000
   54       -1.372702   1.000000
   55       -1.262352   1.000000
   56       -1.182544   1.000000
   57       -1.151479   1.000000
   58       -1.097264   1.000000
   59       -1.001253   1.000000
   60       -0.952984   1.000000
   61       -0.915105   1.000000
   62       -0.856703   1.000000
   63       -0.835016   1.000000
   64       -0.751646   1.000000
   65       -0.633458   1.000000
   66       -0.600879   1.000000
   67       -0.577874   1.000000
   68       -0.515299   1.000000
   69       -0.395244   1.000000
   70       -0.347183   1.000000
   71       -0.271567   1.000000
   72       -0.196031   1.000000
   73       -0.108085   1.000000
   74       -0.021323   1.000000
   75        0.066920   1.000000
   76        0.115664   1.000000
   77        0.316708   1.000000
   78        0.385175   1.000000
   79        0.455355   1.000000
   80        0.623661   1.000000
   81        0.654143   1.000000
   82        0.788357   1.000000
   83        0.816334   1.000000
   84        1.101272   1.000000
   85        1.374950   1.000000
   86        1.492069   1.000000
   87        1.521156   1.000000
   88        1.551035   1.000000
   89        1.599442   1.000000
   90        1.841281   1.000000
   91        1.915916   1.000000
   92        1.998438   1.000000
   93        2.039104   1.000000
   94        2.055525   1.000000
   95        2.221856   1.000000
   96        2.379263   1.000010
   97        2.572627   1.001782
   98        2.774087   1.032002
   99        3.026135   0.611794
  100        3.145524   0.150581
  101        3.204077   0.021992
  102        3.286217  -0.034903
  103        3.365522  -0.024754
  104        3.425999  -0.012030
  105        3.670222  -0.000057
  106        3.761517  -0.000003
  107        3.859234  -0.000000
  108        3.988918  -0.000000
  109        4.011901  -0.000000
  110        4.043133  -0.000000
  111        4.060054  -0.000000
  112        4.115706  -0.000000
  113        4.126814  -0.000000
  114        4.182944  -0.000000
  115        4.228128  -0.000000
  116        4.271774  -0.000000
  117        4.300029  -0.000000
  118        4.332293  -0.000000
  119        4.398897  -0.000000
  120        4.450544  -0.000000
  121        4.461329  -0.000000
  122        4.507614  -0.000000
  123        4.593865  -0.000000
  124        4.663562  -0.000000
  125        4.759716  -0.000000
  126        5.090681  -0.000000
  127        5.190207  -0.000000
  128        6.103266  -0.000000
  129        6.541876  -0.000000
  130        6.648795  -0.000000
  131        6.831483  -0.000000
  132        6.875614  -0.000000

  0.1111111E+00  0.1111111E+00  0.1262379E-14  0.2469136E-01
    1      -10.879793   1.000000
    2      -10.323295   1.000000
    3       -9.606480   1.000000
    4       -8.934063   1.000000
    5       -8.217129   1.000000
    6       -8.132512   1.000000
    7       -8.071051   1.000000
    8       -8.061710   1.000000
    9       -7.958132   1.000000
   10       -7.776859   1.000000
   11       -7.661463   1.000000
   12       -7.462598   1.000000
   13       -7.247950   1.000000
   14       -7.209835   1.000000
   15       -7.076524   1.000000
   16       -6.941879   1.000000
   17       -6.828787   1.000000
   18       -6.362544   1.000000
   19       -6.350063   1.000000
   20       -6.129106   1.000000
   21       -5.974918   1.000000
   22       -5.743570   1.000000
   23       -5.678829   1.000000
   24       -5.511585   1.000000
   25       -5.418786   1.000000
   26       -5.342239   1.000000
   27       -5.217069   1.000000
   28       -5.179069   1.000000
   29       -5.066754   1.000000
   30       -4.918394   1.000000
   31       -4.623244   1.000000
   32       -4.115507   1.000000
   33       -3.881378   1.000000
   34       -3.776740   1.000000
   35       -3.563938   1.000000
   36       -3.501221   1.000000
   37       -3.409401   1.000000
   38       -3.057933   1.000000
   39       -2.858488   1.000000
   40       -2.824874   1.000000
   41       -2.711938   1.000000
   42       -2.688869   1.000000
   43       -2.587435   1.000000
   44       -2.145854   1.000000
   45       -2.097250   1.000000
   46       -2.029813   1.000000
   47       -1.979883   1.000000
   48       -1.896993   1.000000
   49       -1.859312   1.000000
   50       -1.709434   1.000000
   51       -1.626989   1.000000
   52       -1.544783   1.000000
   53       -1.495025   1.000000
   54       -1.419699   1.000000
   55       -1.347007   1.000000
   56       -1.306375   1.000000
   57       -1.212027   1.000000
   58       -1.187654   1.000000
   59       -1.128308   1.000000
   60       -1.021533   1.000000
   61       -0.887791   1.000000
   62       -0.850270   1.000000
   63       -0.793511   1.000000
   64       -0.758634   1.000000
   65       -0.707913   1.000000
   66       -0.703375   1.000000
   67       -0.640621   1.000000
   68       -0.596696   1.000000
   69       -0.516119   1.000000
   70       -0.359183   1.000000
   71       -0.308704   1.000000
   72       -0.209741   1.000000
   73       -0.180269   1.000000
   74       -0.142426   1.000000
   75       -0.063058   1.000000
   76        0.101607   1.000000
   77        0.202877   1.000000
   78        0.244351   1.000000
   79        0.515787   1.000000
   80        0.618801   1.000000
   81        0.695906   1.000000
   82        0.716604   1.000000
   83        0.752719   1.000000
   84        0.997376   1.000000
   85        1.095530   1.000000
   86        1.267210   1.000000
   87        1.361144   1.000000
   88        1.557320   1.000000
   89        1.580210   1.000000
   90        1.793354   1.000000
   91        1.888895   1.000000
   92        1.904692   1.000000
   93        1.907993   1.000000
   94        1.924465   1.000000
   95        2.124458   1.000000
   96        2.422660   1.000039
   97        2.586685   1.002386
   98        2.741745   1.025131