 running on   54 total cores
 distrk:  each k-point on   54 cores,    1 groups
 distr:  one band on    9 cores,    6 groups
 using from now: INCAR     
 vasp.5.4.4.18Apr17-6-g9f103f2a35 (build Dec  7 2020 12:43:57) complex           
 POSCAR found type information on POSCAR  Mo V  B  H 
 POSCAR found :  4 types and      57 ions
 scaLAPACK will be used
 LDA part: xc-table for Pade appr. of Perdew
 POSCAR, INCAR and KPOINTS ok, starting setup
 resort distribution
 resort distribution
 resort distribution
 resort distribution
 resort distribution
 resort distribution
 resort distribution
 resort distribution
 resort distribution
 resort distribution
 resort distribution
 resort distribution
 resort distribution
 resort distribution
 resort distribution
 resort distribution
 resort distribution
 resort distribution
 resort distribution
 resort distribution
 resort distribution
 resort distribution
 resort distribution
 resort distribution
 resort distribution
 resort distribution
 resort distribution
 resort distribution
 resort distribution
 resort distribution
 resort distribution
 resort distribution
 resort distribution
 resort distribution
 resort distribution
 resort distribution
 resort distribution
 resort distribution
 resort distribution
 resort distribution
 resort distribution
 resort distribution
 resort distribution
 resort distribution
 resort distribution
 resort distribution
 resort distribution
 resort distribution
 resort distribution
 resort distribution
 resort distribution
 resort distribution
 resort distribution
 resort distribution
 FFT: planning ...
 WAVECAR not read
 augmentation electrons   201.00640660597949     
 soft         electrons   0.0000000000000000     
 augmentation electrons   201.00640660597949     
 soft         electrons   0.0000000000000000     
 augmentation electrons   201.00640660597949     
 soft         electrons   0.0000000000000000     
 augmentation electrons   201.00640660597949     
 soft         electrons   0.0000000000000000     
 augmentation electrons   201.00640660597949     
 soft         electrons   0.0000000000000000     
 augmentation electrons   201.00640660597949     
 soft         electrons   0.0000000000000000     
 augmentation electrons   201.00640660597949     
 soft         electrons   0.0000000000000000     
 augmentation electrons   201.00640660597949     
 soft         electrons   0.0000000000000000     
 augmentation electrons   201.00640660597949     
 soft         electrons   0.0000000000000000     
 augmentation electrons   201.00640660597949     
 soft         electrons   0.0000000000000000     
 augmentation electrons   201.00640660597949     
 soft         electrons   0.0000000000000000     
 augmentation electrons   201.00640660597949     
 soft         electrons   0.0000000000000000     
 augmentation electrons   201.00640660597949     
 soft         electrons   0.0000000000000000     
 augmentation electrons   201.00640660597949     
 soft         electrons   0.0000000000000000     
 augmentation electrons   201.00640660597949     
 soft         electrons   0.0000000000000000     
 augmentation electrons   201.00640660597949     
 soft         electrons   0.0000000000000000     
 augmentation electrons   201.00640660597949     
 soft         electrons   0.0000000000000000     
 augmentation electrons   201.00640660597949     
 soft         electrons   0.0000000000000000     
 augmentation electrons   201.00640660597949     
 soft         electrons   0.0000000000000000     
 augmentation electrons   201.00640660597949     
 soft         electrons   0.0000000000000000     
 augmentation electrons   201.00640660597949     
 soft         electrons   0.0000000000000000     
 augmentation electrons   201.00640660597949     
 soft         electrons   0.0000000000000000     
 augmentation electrons   201.00640660597949     
 soft         electrons   0.0000000000000000     
 augmentation electrons   201.00640660597949     
 soft         electrons   0.0000000000000000     
 augmentation electrons   201.00640660597949     
 soft         electrons   0.0000000000000000     
 augmentation electrons   201.00640660597949     
 soft         electrons   0.0000000000000000     
 augmentation electrons   201.00640660597949     
 soft         electrons   0.0000000000000000     
 augmentation electrons   201.00640660597949     
 soft         electrons   0.0000000000000000     
 augmentation electrons   201.00640660597949     
 soft         electrons   0.0000000000000000     
 augmentation electrons   201.00640660597949     
 soft         electrons   0.0000000000000000     
 augmentation electrons   201.00640660597949     
 soft         electrons   0.0000000000000000     
 augmentation electrons   201.00640660597949     
 soft         electrons   0.0000000000000000     
 augmentation electrons   201.00640660597949     
 soft         electrons   0.0000000000000000     
 augmentation electrons   201.00640660597949     
 soft         electrons   0.0000000000000000     
 augmentation electrons   201.00640660597949     
 soft         electrons   0.0000000000000000     
 augmentation electrons   201.00640660597949     
 soft         electrons   0.0000000000000000     
 augmentation electrons   201.00640660597949     
 soft         electrons   0.0000000000000000     
 augmentation electrons   201.00640660597949     
 soft         electrons   0.0000000000000000     
 augmentation electrons   201.00640660597949     
 soft         electrons   0.0000000000000000     
 augmentation electrons   201.00640660597949     
 soft         electrons   0.0000000000000000     
 augmentation electrons   201.00640660597949     
 soft         electrons   0.0000000000000000     
 augmentation electrons   201.00640660597949     
 soft         electrons   0.0000000000000000     
 augmentation electrons   201.00640660597949     
 soft         electrons   0.0000000000000000     
 augmentation electrons   201.00640660597949     
 soft         electrons   0.0000000000000000     
 augmentation electrons   201.00640660597949     
 soft         electrons   0.0000000000000000     
 augmentation electrons   201.00640660597949     
 soft         electrons   0.0000000000000000     
 augmentation electrons   201.00640660597949     
 soft         electrons   0.0000000000000000     
 augmentation electrons   201.00640660597949     
 soft         electrons   0.0000000000000000     
 augmentation electrons   201.00640660597949     
 soft         electrons   0.0000000000000000     
 augmentation electrons   201.00640660597949     
 soft         electrons   0.0000000000000000     
 augmentation electrons   201.00640660597949     
 soft         electrons   0.0000000000000000     
 augmentation electrons   201.00640660597949     
 soft         electrons   0.0000000000000000     
 augmentation electrons   201.00640660597949     
 soft         electrons   0.0000000000000000     
 augmentation electrons   201.00640660597949     
 soft         electrons   0.0000000000000000     
 total        electrons   201.00640660597949     
 total        electrons   201.00640660597949     
 total        electrons   201.00640660597949     
 total        electrons   201.00640660597949     
 total        electrons   201.00640660597949     
 total        electrons   201.00640660597949     
 total        electrons   201.00640660597949     
 total        electrons   201.00640660597949     
 total        electrons   201.00640660597949     
 total        electrons   201.00640660597949     
 total        electrons   201.00640660597949     
 total        electrons   201.00640660597949     
 total        electrons   201.00640660597949     
 total        electrons   201.00640660597949     
 total        electrons   201.00640660597949     
 total        electrons   201.00640660597949     
 total        electrons   201.00640660597949     
 total        electrons   201.00640660597949     
 total        electrons   201.00640660597949     
 total        electrons   201.00640660597949     
 total        electrons   201.00640660597949     
 total        electrons   201.00640660597949     
 total        electrons   201.00640660597949     
 total        electrons   201.00640660597949     
 total        electrons   201.00640660597949     
 total        electrons   201.00640660597949     
 total        electrons   201.00640660597949     
 total        electrons   201.00640660597949     
 total        electrons   201.00640660597949     
 total        electrons   201.00640660597949     
 total        electrons   201.00640660597949     
 total        electrons   201.00640660597949     
 total        electrons   201.00640660597949     
 total        electrons   201.00640660597949     
 total        electrons   201.00640660597949     
 total        electrons   201.00640660597949     
 total        electrons   201.00640660597949     
 total        electrons   201.00640660597949     
 total        electrons   201.00640660597949     
 total        electrons   201.00640660597949     
 total        electrons   201.00640660597949     
 total        electrons   201.00640660597949     
 total        electrons   201.00640660597949     
 total        electrons   201.00640660597949     
 total        electrons   201.00640660597949     
 total        electrons   201.00640660597949     
 total        electrons   201.00640660597949     
 total        electrons   201.00640660597949     
 total        electrons   201.00640660597949     
 total        electrons   201.00640660597949     
 total        electrons   201.00640660597949     
 total        electrons   201.00640660597949     
 total        electrons   201.00640660597949     
 total        electrons   201.00640660597949     
 augmentation electrons   483.47078933930874     
 soft         electrons   0.0000000000000000     
 total        electrons   483.47078933930874     
 augmentation electrons   483.47078933930874     
 soft         electrons   0.0000000000000000     
 total        electrons   483.47078933930874     
 augmentation electrons   483.47078933930874     
 soft         electrons   0.0000000000000000     
 total        electrons   483.47078933930874     
 augmentation electrons   483.47078933930874     
 soft         electrons   0.0000000000000000     
 total        electrons   483.47078933930874     
 augmentation electrons   483.47078933930874     
 soft         electrons   0.0000000000000000     
 total        electrons   483.47078933930874     
 augmentation electrons   483.47078933930874     
 soft         electrons   0.0000000000000000     
 total        electrons   483.47078933930874     
 augmentation electrons   483.47078933930874     
 soft         electrons   0.0000000000000000     
 total        electrons   483.47078933930874     
 augmentation electrons   483.47078933930874     
 soft         electrons   0.0000000000000000     
 total        electrons   483.47078933930874     
 augmentation electrons   483.47078933930874     
 soft         electrons   0.0000000000000000     
 total        electrons   483.47078933930874     
 augmentation electrons   483.47078933930874     
 soft         electrons   0.0000000000000000     
 total        electrons   483.47078933930874     
 augmentation electrons   483.47078933930874     
 soft         electrons   0.0000000000000000     
 total        electrons   483.47078933930874     
 augmentation electrons   483.47078933930874     
 soft         electrons   0.0000000000000000     
 total        electrons   483.47078933930874     
 augmentation electrons   483.47078933930874     
 soft         electrons   0.0000000000000000     
 total        electrons   483.47078933930874     
 augmentation electrons   483.47078933930874     
 soft         electrons   0.0000000000000000     
 total        electrons   483.47078933930874     
 augmentation electrons   483.47078933930874     
 soft         electrons   0.0000000000000000     
 total        electrons   483.47078933930874     
 augmentation electrons   483.47078933930874     
 soft         electrons   0.0000000000000000     
 total        electrons   483.47078933930874     
 augmentation electrons   483.47078933930874     
 soft         electrons   0.0000000000000000     
 total        electrons   483.47078933930874     
 augmentation electrons   483.47078933930874     
 soft         electrons   0.0000000000000000     
 total        electrons   483.47078933930874     
 augmentation electrons   483.47078933930874     
 soft         electrons   0.0000000000000000     
 total        electrons   483.47078933930874     
 augmentation electrons   483.47078933930874     
 soft         electrons   0.0000000000000000     
 total        electrons   483.47078933930874     
 augmentation electrons   483.47078933930874     
 soft         electrons   0.0000000000000000     
 total        electrons   483.47078933930874     
 augmentation electrons   483.47078933930874     
 soft         electrons   0.0000000000000000     
 total        electrons   483.47078933930874     
 augmentation electrons   483.47078933930874     
 soft         electrons   0.0000000000000000     
 total        electrons   483.47078933930874     
 augmentation electrons   483.47078933930874     
 soft         electrons   0.0000000000000000     
 total        electrons   483.47078933930874     
 augmentation electrons   483.47078933930874     
 soft         electrons   0.0000000000000000     
 total        electrons   483.47078933930874     
 augmentation electrons   483.47078933930874     
 soft         electrons   0.0000000000000000     
 total        electrons   483.47078933930874     
 augmentation electrons   483.47078933930874     
 soft         electrons   0.0000000000000000     
 total        electrons   483.47078933930874     
 augmentation electrons   483.47078933930874     
 soft         electrons   0.0000000000000000     
 total        electrons   483.47078933930874     
 augmentation electrons   483.47078933930874     
 soft         electrons   0.0000000000000000     
 total        electrons   483.47078933930874     
 augmentation electrons   483.47078933930874     
 soft         electrons   0.0000000000000000     
 total        electrons   483.47078933930874     
 augmentation electrons   483.47078933930874     
 soft         electrons   0.0000000000000000     
 total        electrons   483.47078933930874     
 augmentation electrons   483.47078933930874     
 soft         electrons   0.0000000000000000     
 total        electrons   483.47078933930874     
 augmentation electrons   483.47078933930874     
 soft         electrons   0.0000000000000000     
 total        electrons   483.47078933930874     
 augmentation electrons   483.47078933930874     
 soft         electrons   0.0000000000000000     
 total        electrons   483.47078933930874     
 augmentation electrons   483.47078933930874     
 soft         electrons   0.0000000000000000     
 total        electrons   483.47078933930874     
 augmentation electrons   483.47078933930874     
 soft         electrons   0.0000000000000000     
 total        electrons   483.47078933930874     
 augmentation electrons   483.47078933930874     
 soft         electrons   0.0000000000000000     
 total        electrons   483.47078933930874     
 augmentation electrons   483.47078933930874     
 soft         electrons   0.0000000000000000     
 total        electrons   483.47078933930874     
 augmentation electrons   483.47078933930874     
 soft         electrons   0.0000000000000000     
 total        electrons   483.47078933930874     
 augmentation electrons   483.47078933930874     
 soft         electrons   0.0000000000000000     
 total        electrons   483.47078933930874     
 augmentation electrons   483.47078933930874     
 soft         electrons   0.0000000000000000     
 total        electrons   483.47078933930874     
 augmentation electrons   483.47078933930874     
 soft         electrons   0.0000000000000000     
 total        electrons   483.47078933930874     
 augmentation electrons   483.47078933930874     
 soft         electrons   0.0000000000000000     
 total        electrons   483.47078933930874     
 augmentation electrons   483.47078933930874     
 soft         electrons   0.0000000000000000     
 total        electrons   483.47078933930874     
 augmentation electrons   483.47078933930874     
 soft         electrons   0.0000000000000000     
 total        electrons   483.47078933930874     
 augmentation electrons   483.47078933930874     
 soft         electrons   0.0000000000000000     
 total        electrons   483.47078933930874     
 augmentation electrons   483.47078933930874     
 soft         electrons   0.0000000000000000     
 total        electrons   483.47078933930874     
 augmentation electrons   483.47078933930874     
 soft         electrons   0.0000000000000000     
 total        electrons   483.47078933930874     
 augmentation electrons   483.47078933930874     
 soft         electrons   0.0000000000000000     
 total        electrons   483.47078933930874     
 augmentation electrons   483.47078933930874     
 soft         electrons   0.0000000000000000     
 total        electrons   483.47078933930874     
 augmentation electrons   483.47078933930874     
 soft         electrons   0.0000000000000000     
 total        electrons   483.47078933930874     
 augmentation electrons   483.47078933930874     
 soft         electrons   0.0000000000000000     
 total        electrons   483.47078933930874     
 augmentation electrons   483.47078933930874     
 soft         electrons   0.0000000000000000     
 total        electrons   483.47078933930874     
 augmentation electrons   483.47078933930874     
 soft         electrons   0.0000000000000000     
 total        electrons   483.47078933930874     
 entering main loop
       N       E                     dE             d eps       ncg     rms          rms(c)
DAV:   1     0.193563688664E+04    0.19356E+04   -0.73422E+04 10824   0.137E+03
DAV:   2    -0.945251997371E+02   -0.20302E+04   -0.18640E+04 11316   0.362E+02
DAV:   3    -0.483556608547E+03   -0.38903E+03   -0.37172E+03 15636   0.161E+02
DAV:   4    -0.513823984338E+03   -0.30267E+02   -0.29565E+02 17628   0.513E+01
DAV:   5    -0.514889508795E+03   -0.10655E+01   -0.10472E+01 18180   0.105E+01    0.112E+02
RMM:   6    -0.502220325264E+03    0.12669E+02   -0.95319E+02 15768   0.104E+02    0.717E+01
RMM:   7    -0.536764554238E+03   -0.34544E+02   -0.36863E+02 12704   0.831E+01    0.456E+01
RMM:   8    -0.455328210766E+03    0.81436E+02   -0.78270E+01 14360   0.243E+01    0.286E+01
RMM:   9    -0.447709236153E+03    0.76190E+01   -0.33172E+01 13341   0.230E+01    0.241E+01
RMM:  10    -0.438564920272E+03    0.91443E+01   -0.16240E+01 16196   0.102E+01    0.185E+01
RMM:  11    -0.435529525394E+03    0.30354E+01   -0.31165E+00 16125   0.454E+00    0.154E+01
RMM:  12    -0.435509366150E+03    0.20159E-01   -0.66023E-01 12801   0.303E+00    0.141E+01
RMM:  13    -0.435398767031E+03    0.11060E+00   -0.31565E-01 15593   0.149E+00    0.130E+01
RMM:  14    -0.435140074179E+03    0.25869E+00   -0.10772E+00 12820   0.405E+00    0.801E+00
RMM:  15    -0.434074359078E+03    0.10657E+01   -0.20950E+00 12373   0.557E+00    0.496E+00
RMM:  16    -0.433910607332E+03    0.16375E+00   -0.20842E+00 14942   0.382E+00    0.319E+00
RMM:  17    -0.433860419485E+03    0.50188E-01   -0.33883E-01 16458   0.111E+00    0.235E+00
RMM:  18    -0.433834558948E+03    0.25861E-01   -0.48269E-02 13367   0.750E-01    0.180E+00
RMM:  19    -0.433839235657E+03   -0.46767E-02   -0.13074E-01 14468   0.113E+00    0.168E+00
RMM:  20    -0.433814225467E+03    0.25010E-01   -0.63073E-02 12495   0.101E+00    0.981E-01
RMM:  21    -0.433807058813E+03    0.71667E-02   -0.28725E-02 16073   0.360E-01    0.508E-01
RMM:  22    -0.433805595387E+03    0.14634E-02   -0.99276E-03 13014   0.370E-01    0.334E-01
RMM:  23    -0.433806591417E+03   -0.99603E-03   -0.97989E-03 15786   0.237E-01    0.354E-01
RMM:  24    -0.433805622989E+03    0.96843E-03   -0.42133E-03 13070   0.256E-01    0.128E-01
RMM:  25    -0.433808518485E+03   -0.28955E-02   -0.37419E-03 14870   0.177E-01    0.207E-01
RMM:  26    -0.433810101817E+03   -0.15833E-02   -0.15927E-03 15904   0.826E-02    0.205E-01
RMM:  27    -0.433810585554E+03   -0.48374E-03   -0.27909E-04 15046   0.482E-02    0.169E-01
RMM:  28    -0.433811316045E+03   -0.73049E-03   -0.56532E-04 12789   0.924E-02    0.391E-02
RMM:  29    -0.433811566533E+03   -0.25049E-03   -0.33476E-04 16590   0.253E-02    0.249E-02
RMM:  30    -0.433811635565E+03   -0.69031E-04   -0.33492E-05 12935   0.113E-02    0.137E-02
RMM:  31    -0.433811660030E+03   -0.24465E-04   -0.99504E-06 11039   0.710E-03    0.665E-03
RMM:  32    -0.433811668959E+03   -0.89297E-05   -0.31875E-06  9963   0.528E-03    0.339E-03
RMM:  33    -0.433811672145E+03   -0.31857E-05   -0.11146E-06  8620   0.364E-03    0.205E-03
RMM:  34    -0.433811675268E+03   -0.31225E-05   -0.11209E-06  8575   0.337E-03    0.264E-03
RMM:  35    -0.433811675955E+03   -0.68749E-06   -0.49873E-07  8091   0.251E-03
   1 F= -.43381168E+03 E0= -.43381643E+03  d E =0.142632E-01
 augmentation electrons   19.755432212272552     
 soft         electrons   181.29744272414348     
 total        electrons   201.05287493641603     
 augmentation electrons   19.755432212272552     
 soft         electrons   181.29744272414348     
 total        electrons   201.05287493641603     
 augmentation electrons   19.755432212272552     
 soft         electrons   181.29744272414348     
 total        electrons   201.05287493641603     
 augmentation electrons   19.755432212272552     
 soft         electrons   181.29744272414348     
 total        electrons   201.05287493641603     
 augmentation electrons   19.755432212272552     
 soft         electrons   181.29744272414348     
 total        electrons   201.05287493641603     
 augmentation electrons   19.755432212272552     
 soft         electrons   181.29744272414348     
 total        electrons   201.05287493641603     
 augmentation electrons   19.755432212272552     
 soft         electrons   181.29744272414348     
 total        electrons   201.05287493641603     
 augmentation electrons   19.755432212272552     
 soft         electrons   181.29744272414348     
 total        electrons   201.05287493641603     
 augmentation electrons   19.755432212272552     
 soft         electrons   181.29744272414348     
 total        electrons   201.05287493641603     
 augmentation electrons   19.755432212272552     
 soft         electrons   181.29744272414348     
 total        electrons   201.05287493641603     
 augmentation electrons   19.755432212272552     
 soft         electrons   181.29744272414348     
 total        electrons   201.05287493641603     
 augmentation electrons   19.755432212272552     
 soft         electrons   181.29744272414348     
 total        electrons   201.05287493641603     
 augmentation electrons   19.755432212272552     
 soft         electrons   181.29744272414348     
 total        electrons   201.05287493641603     
 augmentation electrons   19.755432212272552     
 soft         electrons   181.29744272414348     
 total        electrons   201.05287493641603     
 augmentation electrons   19.755432212272552     
 soft         electrons   181.29744272414348     
 total        electrons   201.05287493641603     
 augmentation electrons   19.755432212272552     
 soft         electrons   181.29744272414348     
 total        electrons   201.05287493641603     
 augmentation electrons   19.755432212272552     
 soft         electrons   181.29744272414348     
 total        electrons   201.05287493641603     
 augmentation electrons   19.755432212272552     
 soft         electrons   181.29744272414348     
 total        electrons   201.05287493641603     
 augmentation electrons   19.755432212272552     
 soft         electrons   181.29744272414348     
 total        electrons   201.05287493641603     
 augmentation electrons   19.755432212272552     
 soft         electrons   181.29744272414348     
 total        electrons   201.05287493641603     
 augmentation electrons   19.755432212272552     
 soft         electrons   181.29744272414348     
 total        electrons   201.05287493641603     
 augmentation electrons   19.755432212272552     
 soft         electrons   181.29744272414348     
 total        electrons   201.05287493641603     
 augmentation electrons   19.755432212272552     
 soft         electrons   181.29744272414348     
 total        electrons   201.05287493641603     
 augmentation electrons   19.755432212272552     
 soft         electrons   181.29744272414348     
 total        electrons   201.05287493641603     
 augmentation electrons   19.755432212272552     
 soft         electrons   181.29744272414348     
 total        electrons   201.05287493641603     
 augmentation electrons   19.755432212272552     
 soft         electrons   181.29744272414348     
 total        electrons   201.05287493641603     
 augmentation electrons   19.755432212272552     
 soft         electrons   181.29744272414348     
 total        electrons   201.05287493641603     
 augmentation electrons   19.755432212272552     
 soft         electrons   181.29744272414348     
 total        electrons   201.05287493641603     
 augmentation electrons   19.755432212272552     
 soft         electrons   181.29744272414348     
 total        electrons   201.05287493641603     
 augmentation electrons   19.755432212272552     
 soft         electrons   181.29744272414348     
 total        electrons   201.05287493641603     
 augmentation electrons   19.755432212272552     
 soft         electrons   181.29744272414348     
 total        electrons   201.05287493641603     
 augmentation electrons   19.755432212272552     
 soft         electrons   181.29744272414348     
 total        electrons   201.05287493641603     
 augmentation electrons   19.755432212272552     
 soft         electrons   181.29744272414348     
 total        electrons   201.05287493641603     
 augmentation electrons   19.755432212272552     
 soft         electrons   181.29744272414348     
 total        electrons   201.05287493641603     
 augmentation electrons   19.755432212272552     
 soft         electrons   181.29744272414348     
 total        electrons   201.05287493641603     
 augmentation electrons   19.755432212272552     
 soft         electrons   181.29744272414348     
 total        electrons   201.05287493641603     
 augmentation electrons   19.755432212272552     
 soft         electrons   181.29744272414348     
 total        electrons   201.05287493641603     
 augmentation electrons   19.755432212272552     
 soft         electrons   181.29744272414348     
 total        electrons   201.05287493641603     
 augmentation electrons   19.755432212272552     
 soft         electrons   181.29744272414348     
 total        electrons   201.05287493641603     
 augmentation electrons   19.755432212272552     
 soft         electrons   181.29744272414348     
 augmentation electrons   19.755432212272552     
 soft         electrons   181.29744272414348     
 total        electrons   201.05287493641603     
 augmentation electrons   19.755432212272552     
 soft         electrons   181.29744272414348     
 total        electrons   201.05287493641603     
 augmentation electrons   19.755432212272552     
 soft         electrons   181.29744272414348     
 total        electrons   201.05287493641603     
 augmentation electrons   19.755432212272552     
 soft         electrons   181.29744272414348     
 total        electrons   201.05287493641603     
 augmentation electrons   19.755432212272552     
 soft         electrons   181.29744272414348     
 total        electrons   201.05287493641603     
 augmentation electrons   19.755432212272552     
 soft         electrons   181.29744272414348     
 total        electrons   201.05287493641603     
 augmentation electrons   19.755432212272552     
 soft         electrons   181.29744272414348     
 total        electrons   201.05287493641603     
 augmentation electrons   19.755432212272552     
 soft         electrons   181.29744272414348     
 total        electrons   201.05287493641603     
 augmentation electrons   19.755432212272552     
 soft         electrons   181.29744272414348     
 total        electrons   201.05287493641603     
 augmentation electrons   19.755432212272552     
 soft         electrons   181.29744272414348     
 total        electrons   201.05287493641603     
 augmentation electrons   19.755432212272552     
 soft         electrons   181.29744272414348     
 total        electrons   201.05287493641603     
 augmentation electrons   19.755432212272552     
 soft         electrons   181.29744272414348     
 total        electrons   201.05287493641603     
 augmentation electrons   19.755432212272552     
 soft         electrons   181.29744272414348     
 total        electrons   201.05287493641603     
 augmentation electrons   19.755432212272552     
 soft         electrons   181.29744272414348     
 total        electrons   201.05287493641603     
 total        electrons   201.05287493641603     
Note: The following floating-point exceptions are signalling: IEEE_OVERFLOW_FLAG
Note: The following floating-point exceptions are signalling: IEEE_OVERFLOW_FLAG
Note: The following floating-point exceptions are signalling: IEEE_OVERFLOW_FLAG
Note: The following floating-point exceptions are signalling: IEEE_OVERFLOW_FLAG
Note: The following floating-point exceptions are signalling: IEEE_OVERFLOW_FLAG
Note: The following floating-point exceptions are signalling: IEEE_OVERFLOW_FLAG
Note: The following floating-point exceptions are signalling: IEEE_OVERFLOW_FLAG
Note: The following floating-point exceptions are signalling: IEEE_OVERFLOW_FLAG
Note: The following floating-point exceptions are signalling: IEEE_OVERFLOW_FLAG
Note: The following floating-point exceptions are signalling: IEEE_OVERFLOW_FLAG
Note: The following floating-point exceptions are signalling: IEEE_OVERFLOW_FLAG
Note: The following floating-point exceptions are signalling: IEEE_OVERFLOW_FLAG
Note: The following floating-point exceptions are signalling: IEEE_OVERFLOW_FLAG
Note: The following floating-point exceptions are signalling: IEEE_OVERFLOW_FLAG
Note: The following floating-point exceptions are signalling: IEEE_OVERFLOW_FLAG
Note: The following floating-point exceptions are signalling: IEEE_OVERFLOW_FLAG
Note: The following floating-point exceptions are signalling: IEEE_OVERFLOW_FLAG
Note: The following floating-point exceptions are signalling: IEEE_OVERFLOW_FLAG
Note: The following floating-point exceptions are signalling: IEEE_OVERFLOW_FLAG
Note: The following floating-point exceptions are signalling: IEEE_OVERFLOW_FLAG
Note: The following floating-point exceptions are signalling: IEEE_OVERFLOW_FLAG
Note: The following floating-point exceptions are signalling: IEEE_OVERFLOW_FLAG
Note: The following floating-point exceptions are signalling: IEEE_OVERFLOW_FLAG
Note: The following floating-point exceptions are signalling: IEEE_OVERFLOW_FLAG
Note: The following floating-point exceptions are signalling: IEEE_OVERFLOW_FLAG
Note: The following floating-point exceptions are signalling: IEEE_OVERFLOW_FLAG
Note: The following floating-point exceptions are signalling: IEEE_OVERFLOW_FLAG
Note: The following floating-point exceptions are signalling: IEEE_OVERFLOW_FLAG
Note: The following floating-point exceptions are signalling: IEEE_OVERFLOW_FLAG
Note: The following floating-point exceptions are signalling: IEEE_OVERFLOW_FLAG
Note: The following floating-point exceptions are signalling: IEEE_OVERFLOW_FLAG
Note: The following floating-point exceptions are signalling: IEEE_OVERFLOW_FLAG
Note: The following floating-point exceptions are signalling: IEEE_OVERFLOW_FLAG
Note: The following floating-point exceptions are signalling: IEEE_OVERFLOW_FLAG
Note: The following floating-point exceptions are signalling: IEEE_OVERFLOW_FLAG
Note: The following floating-point exceptions are signalling: IEEE_OVERFLOW_FLAG
Note: The following floating-point exceptions are signalling: IEEE_OVERFLOW_FLAG
Note: The following floating-point exceptions are signalling: IEEE_OVERFLOW_FLAG
Note: The following floating-point exceptions are signalling: IEEE_OVERFLOW_FLAG
Note: The following floating-point exceptions are signalling: IEEE_OVERFLOW_FLAG
Note: The following floating-point exceptions are signalling: IEEE_OVERFLOW_FLAG
Note: The following floating-point exceptions are signalling: IEEE_OVERFLOW_FLAG
Note: The following floating-point exceptions are signalling: IEEE_OVERFLOW_FLAG
Note: The following floating-point exceptions are signalling: IEEE_OVERFLOW_FLAG
Note: The following floating-point exceptions are signalling: IEEE_OVERFLOW_FLAG
Note: The following floating-point exceptions are signalling: IEEE_OVERFLOW_FLAG
Note: The following floating-point exceptions are signalling: IEEE_OVERFLOW_FLAG
Note: The following floating-point exceptions are signalling: IEEE_OVERFLOW_FLAG
Note: The following floating-point exceptions are signalling: IEEE_OVERFLOW_FLAG
Note: The following floating-point exceptions are signalling: IEEE_OVERFLOW_FLAG
Note: The following floating-point exceptions are signalling: IEEE_OVERFLOW_FLAG
Note: The following floating-point exceptions are signalling: IEEE_OVERFLOW_FLAG
Note: The following floating-point exceptions are signalling: IEEE_OVERFLOW_FLAG
Note: The following floating-point exceptions are signalling: IEEE_OVERFLOW_FLAG
