    3    3   60    1
  0.7818830E+01  0.2980000E-09  0.2980000E-09  0.3050000E-09  0.5000000E-15
   1.0000000000000000E-004
  CAR 
 Name                                    
     11    216     10

  0.3742002E-15  0.3742002E-15  0.3742002E-15  0.2962963E-03
    1       -5.686889   1.000000
    2        5.154971   1.000000
    3        5.154972   1.000000
    4        5.876767   1.000000
    5        6.580281   1.000000
    6        9.450264  -0.000000
    7        9.450265  -0.000000
    8       11.940873   0.000000
    9       11.940881   0.000000
   10       14.062497   0.000000

  0.6666667E-01  0.3777220E-15  0.3742002E-15  0.1777778E-02
    1       -5.601098   1.000000
    2        4.931098   1.000000
    3        5.153900   1.000000
    4        5.903562   1.000000
    5        6.454562   1.000000
    6        9.430331  -0.000000
    7        9.665366  -0.000000
    8       11.526224  -0.000000
    9       11.560441  -0.000000
   10       14.496528   0.000000

  0.1333333E+00  0.3824091E-15  0.3742002E-15  0.1777778E-02
    1       -5.346201   1.000000
    2        4.310218   1.000000
    3        5.143811   1.000000
    4        5.973857   1.000000
    5        6.170731   1.000000
    6        9.374410  -0.000013
    7       10.204803  -0.000000
    8       10.830315  -0.000000
    9       10.954702  -0.000000
   10       15.158040   0.000000

  0.2000000E+00  0.3806431E-15  0.3742002E-15  0.1777778E-02
    1       -4.929415   1.000000
    2        3.419698   1.000000
    3        5.110205   1.000000
    4        5.863028   1.000000
    5        6.029899   1.000000
    6        9.293310  -0.001075
    7       10.294430  -0.000000
    8       10.482182  -0.000000
    9       10.893171  -0.000000
   10       15.654242   0.000000

  0.2666667E+00  0.3859547E-15  0.3742002E-15  0.1777778E-02
    1       -4.361923   1.000000
    2        2.382295   1.000000
    3        5.045239   1.000000
    4        5.600184   1.000000
    5        5.998133   1.000000
    6        9.201938  -0.022937
    7       10.071666  -0.000000
    8       10.200811  -0.000000
    9       11.581180  -0.000000
   10       16.047731   0.000000

  0.3333333E+00  0.3635107E-15  0.3742002E-15  0.1777778E-02
    1       -3.657926   1.000000
    2        1.283689   1.000000
    3        4.959554   1.000000
    4        5.405594   1.000000
    5        5.869276   1.000000
    6        9.116261   0.025078
    7       10.082250  -0.000000
    8       10.158121  -0.000000
    9       12.119862   0.000000
   10       15.684321   0.000000

  0.4000000E+00  0.3993534E-15  0.3742002E-15  0.1777778E-02
    1       -2.833846   1.000000
    2        0.180136   1.000000
    3        4.879184   1.000000
    4        5.281470   1.000000
    5        5.715288   1.000000
    6        9.050413   0.426233
    7       10.061943  -0.000000
    8       10.406383  -0.000000
    9       12.400406   0.000000
   10       15.520353   0.000000

  0.4666667E+00  0.3562316E-15  0.3742002E-15  0.1777778E-02
    1       -1.910015   1.000000
    2       -0.887712   1.000000
    3        4.831034   1.000000
    4        5.222030   1.000000
    5        5.616859   1.000000
    6        9.014767   0.718710
    7       10.072654  -0.000000
    8       10.609458  -0.000000
    9       12.476627   0.000000
   10       15.587746   0.000000

  0.6666667E-01  0.6666667E-01  0.3742002E-15  0.1777778E-02
    1       -5.430732   1.000000
    2        4.536349   1.000000
    3        5.100521   1.000000
    4        5.972687   1.000000
    5        6.254559   1.000000
    6        9.382065  -0.000008
    7       10.048620  -0.000000
    8       11.040125  -0.000000
    9       11.079676  -0.000000
   10       15.145133   0.000000

  0.1333333E+00  0.6666667E-01  0.3742002E-15  0.3555556E-02
    1       -5.094828   1.000000
    2        3.828259   1.000000
    3        4.954918   1.000000
    4        5.975046   1.000000
    5        6.116667   1.000000
    6        9.284837  -0.001562
    7       10.451362  -0.000000
    8       10.622994  -0.000000
    9       10.678536  -0.000000
   10       15.731268   0.000000

  0.2000000E+00  0.6666667E-01  0.3742002E-15  0.3555556E-02
    1       -4.602548   1.000000
    2        2.901281   1.000000
    3        4.752361   1.000000
    4        5.711793   1.000000
    5        6.261265   1.000000
    6        9.155893  -0.034290
    7       10.018192  -0.000000
    8       10.361527  -0.000000
    9       11.400086  -0.000000
   10       16.164094   0.000000

  0.2666667E+00  0.6666667E-01  0.3742002E-15  0.3555556E-02
    1       -3.966476   1.000000
    2        1.856058   1.000000
    3        4.528554   1.000000
    4        5.506364   1.000000
    5        6.329216   1.000000
    6        9.015636   0.712170
    7        9.837700  -0.000000
    8       10.300718  -0.000000
    9       12.068952   0.000000
   10       15.840326   0.000000

  0.3333333E+00  0.6666667E-01  0.3742002E-15  0.3555556E-02
    1       -3.201896   1.000000
    2        0.766831   1.000000
    3        4.327376   1.000000
    4        5.368292   1.000000
    5        6.307550   1.000000
    6        8.887750   1.025880
    7        9.868411  -0.000000
    8       10.383144  -0.000000
    9       12.534599   0.000000
   10       15.524645   0.000000

  0.4000000E+00  0.6666667E-01  0.3742002E-15  0.3555556E-02
    1       -2.326416   1.000000
    2       -0.314698   1.000000
    3        4.189214   1.000000
    4        5.291951   1.000000
    5        6.253282   1.000000
    6        8.797144   1.001474
    7        9.967096  -0.000000
    8       10.516808  -0.000000
    9       12.735464   0.000000
   10       15.496117   0.000000

  0.4666667E+00  0.6666667E-01  0.3742002E-15  0.1777778E-02
    1       -1.416646   1.000000
    2       -1.294878   1.000000
    3        4.140203   1.000000
    4        5.267929   1.000000
    5        6.227594   1.000000
    6        8.764228   1.000312
    7       10.012705  -0.000000
    8       10.582829  -0.000000
    9       12.776103   0.000000
   10       15.521374   0.000000

  0.1333333E+00  0.1333333E+00  0.3742002E-15  0.1777778E-02
    1       -4.683295   1.000000
    2        3.179689   1.000000
    3        4.490909   1.000000
    4        5.762841   1.000000
    5        6.415595   1.000000
    6        9.096853   0.102721
    7        9.998689  -0.000000
    8       10.426921  -0.000000
    9       11.371070  -0.000000
   10       16.560537   0.000000

  0.2000000E+00  0.1333333E+00  0.3742002E-15  0.3555556E-02
    1       -4.122035   1.000000
    2        2.354087   1.000000
    3        3.984931   1.000000
    4        5.594188   1.000000
    5        6.733942   1.000000
    6        8.848054   1.009775
    7        9.641687  -0.000000
    8       10.400062  -0.000000
    9       12.140619   0.000000
   10       15.944256   0.000000

  0.2666667E+00  0.1333333E+00  0.3742002E-15  0.3555556E-02
    1       -3.424705   1.000000
    2        1.383200   1.000000
    3        3.574577   1.000000
    4        5.489382   1.000000
    5        6.961653   1.000000
    6        8.583701   1.000000
    7        9.513046  -0.000000
    8       10.446342  -0.000000
    9       12.833820   0.000000
   10       15.525964   0.000000

  0.3333333E+00  0.1333333E+00  0.3742002E-15  0.3555556E-02
    1       -2.607692   1.000000
    2        0.344036   1.000000
    3        3.296826   1.000000
    4        5.441159   1.000000
    5        7.052208   1.000000
    6        8.357439   1.000000
    7        9.623966  -0.000000
    8       10.467572  -0.000000
    9       13.281200   0.000000
   10       15.394989   0.000000

  0.4000000E+00  0.1333333E+00  0.3742002E-15  0.3555556E-02
    1       -1.690403   1.000000
    2       -0.695498   1.000000
    3        3.157258   1.000000
    4        5.427152   1.000000
    5        7.063172   1.000000
    6        8.225082   1.000000
    7        9.810967  -0.000000
    8       10.427634  -0.000000
    9       13.445020   0.000000
   10       15.451856   0.000000

  0.2000000E+00  0.2000000E+00  0.3742002E-15  0.1777778E-02
    1       -3.499277   1.000000
    2        1.744111   1.000000
    3        3.161898   1.000000
    4        5.548600   1.000000
    5        7.240322   1.000000
    6        8.443057   1.000000
    7        9.330760  -0.000170
    8       10.473146  -0.000000
    9       12.973040   0.000000
   10       15.524551   0.000000

  0.2666667E+00  0.2000000E+00  0.3742002E-15  0.3555556E-02
    1       -2.749184   1.000000
    2        0.967762   1.000000
    3        2.543055   1.000000
    4        5.577658   1.000000
    5        7.643688   1.000000
    6        8.028224   1.000000
    7        9.229494  -0.011607
    8       10.461202  -0.000000
    9       13.718360   0.000000
   10       15.284330   0.000000

  0.3333333E+00  0.2000000E+00  0.3742002E-15  0.3555556E-02
    1       -1.891192   1.000000
    2        0.031191   1.000000
    3        2.212432   1.000000
    4        5.646357   1.000000
    5        7.702246   1.000000
    6        7.826730   1.000000
    7        9.416436  -0.000001
    8       10.305694  -0.000000
    9       14.145447   0.000000
   10       15.300584   0.000000

  0.4000000E+00  0.2000000E+00  0.3742002E-15  0.1777778E-02
    1       -0.997942   1.000000
    2       -0.901074   1.000000
    3        2.111793   1.000000
    4        5.684382   1.000000
    5        7.574166   1.000000
    6        7.860367   1.000000
    7        9.625875  -0.000000
    8       10.140413  -0.000000
    9       14.242662   0.000000
   10       15.386182   0.000000

  0.2666667E+00  0.2666667E+00  0.3742002E-15  0.1777778E-02
    1       -1.958627   1.000000
    2        0.523118   1.000000
    3        1.645226   1.000000
    4        5.768254   1.000000
    5        7.469114   1.000000
    6        8.274194   1.000000
    7        9.079386   0.204523
    8       10.268905  -0.000000
    9       14.519056   0.000000
   10       15.149164   0.000000

  0.3333333E+00  0.2666667E+00  0.3742002E-15  0.3555556E-02
    1       -1.089627   1.000000
    2       -0.171780   1.000000
    3        1.185676   1.000000
    4        5.989605   1.000000
    5        7.047559   1.000000
    6        8.585300   1.000000
    7        9.278908  -0.002008
    8        9.899336  -0.000000
    9       14.877207   0.000000
   10       15.242580   0.000000

  0.3333333E+00  0.3333333E+00  0.3742002E-15  0.5925926E-03
    1       -0.395092   1.000000
    2       -0.395090   1.000000
    3        0.568807   1.000000
    4        6.463597   1.000000
    5        6.463598   1.000000
    6        9.219380  -0.015323
    7        9.219381  -0.015322
    8        9.389201  -0.000005
    9       15.200334   0.000000
   10       15.200335   0.000000

  0.3742002E-15  0.3742002E-15  0.6666667E-01  0.5925926E-03
    1       -5.621489   1.000000
    2        5.209054   1.000000
    3        5.209055   1.000000
    4        5.304317   1.000000
    5        7.048272   1.000000
    6        9.296744  -0.000920
    7        9.296746  -0.000920
    8       11.832922   0.000000
    9       11.832933   0.000000
   10       14.299708   0.000000

  0.6666667E-01  0.3777220E-15  0.6666667E-01  0.3555556E-02
    1       -5.536386   1.000000
    2        4.980068   1.000000
    3        5.202288   1.000000
    4        5.319892   1.000000
    5        6.915487   1.000000
    6        9.267701  -0.003156
    7        9.513255  -0.000000
    8       11.510570  -0.000000
    9       11.545755  -0.000000
   10       14.691662   0.000000

  0.1333333E+00  0.3824091E-15  0.6666667E-01  0.3555556E-02
    1       -5.283585   1.000000
    2        4.347960   1.000000
    3        5.174852   1.000000
    4        5.349335   1.000000
    5        6.653057   1.000000
    6        9.196377  -0.025508
    7        9.969447  -0.000000
    8       10.994040  -0.000000
    9       11.054539  -0.000000
   10       15.216886   0.000000

  0.2000000E+00  0.3806431E-15  0.6666667E-01  0.3555556E-02
    1       -4.870320   1.000000
    2        3.445045   1.000000
    3        5.112773   1.000000
    4        5.353014   1.000000
    5        6.401128   1.000000
    6        9.124896   0.002129
    7       10.111045  -0.000000
    8       10.649070  -0.000000
    9       11.037493  -0.000000
   10       15.641197   0.000000

  0.2666667E+00  0.3859547E-15  0.6666667E-01  0.3555556E-02
    1       -4.307748   1.000000
    2        2.399367   1.000000
    3        5.013178   1.000000
    4        5.314496   1.000000
    5        6.169341   1.000000
    6        9.094794   0.113174
    7       10.009720  -0.000000
    8       10.370610  -0.000000
    9       11.586248  -0.000000
   10       15.757199   0.000000

  0.3333333E+00  0.3635107E-15  0.6666667E-01  0.3555556E-02
    1       -3.609916   1.000000
    2        1.298316   1.000000
    3        4.894995   1.000000
    4        5.258705   1.000000
    5        5.939183   1.000000
    6        9.111220   0.041669
    7       10.104766  -0.000000
    8       10.201025  -0.000000
    9       12.074362   0.000000
   10       15.387452   0.000000

  0.4000000E+00  0.3993534E-15  0.6666667E-01  0.3555556E-02
    1       -2.792740   1.000000
    2        0.196902   1.000000
    3        4.790891   1.000000
    4        5.215149   1.000000
    5        5.739929   1.000000
    6        9.144867  -0.028144
    7       10.116126  -0.000000
    8       10.328134  -0.000000
    9       12.356825   0.000000
   10       15.118170   0.000000

  0.4666667E+00  0.3562316E-15  0.6666667E-01  0.3555556E-02
    1       -1.874075   1.000000
    2       -0.867780   1.000000
    3        4.730590   1.000000
    4        5.194507   1.000000
    5        5.623096   1.000000
    6        9.166765  -0.035355
    7       10.086740  -0.000000
    8       10.504186  -0.000000
    9       12.463761   0.000000
   10       15.000230   0.000000

  0.6666667E-01  0.6666667E-01  0.6666667E-01  0.3555556E-02
    1       -5.367426   1.000000
    2        4.578120   1.000000
    3        5.133198   1.000000
    4        5.353076   1.000000
    5        6.742735   1.000000
    6        9.190664  -0.028093
    7        9.873505  -0.000000
    8       11.106797  -0.000000
    9       11.181803  -0.000000
   10       15.218549   0.000000

  0.1333333E+00  0.6666667E-01  0.6666667E-01  0.7111111E-02
    1       -5.034337   1.000000
    2        3.859645   1.000000
    3        4.969203   1.000000
    4        5.374319   1.000000
    5        6.590397   1.000000
    6        9.052030   0.412752
    7       10.249601  -0.000000
    8       10.675272  -0.000000
    9       10.969228  -0.000000
   10       15.755315   0.000000

  0.2000000E+00  0.6666667E-01  0.6666667E-01  0.7111111E-02
    1       -4.546303   1.000000
    2        2.922414   1.000000
    3        4.745054   1.000000
    4        5.352092   1.000000
    5        6.509166   1.000000
    6        8.925644   1.034757
    7       10.128262  -0.000000
    8       10.425459  -0.000000
    9       11.419579  -0.000000
   10       15.996720   0.000000

  0.2666667E+00  0.6666667E-01  0.6666667E-01  0.7111111E-02
    1       -3.915861   1.000000
    2        1.871427   1.000000
    3        4.503817   1.000000
    4        5.306378   1.000000
    5        6.422543   1.000000
    6        8.878035   1.021399
    7       10.016214  -0.000000
    8       10.308416  -0.000000
    9       12.014067   0.000000
   10       15.598038   0.000000

  0.3333333E+00  0.6666667E-01  0.6666667E-01  0.7111111E-02
    1       -3.158025   1.000000
    2        0.782028   1.000000
    3        4.293240   1.000000
    4        5.267271   1.000000
    5        6.297390   1.000000
    6        8.902474   1.032066
    7        9.994931  -0.000000
    8       10.345357  -0.000000
    9       12.455310   0.000000
   10       15.229323   0.000000

  0.4000000E+00  0.6666667E-01  0.6666667E-01  0.7111111E-02
    1       -2.289605   1.000000
    2       -0.295859   1.000000
    3        4.151303   1.000000
    4        5.246929   1.000000
    5        6.182920   1.000000
    6        8.932443   1.032237
    7       10.013183  -0.000000
    8       10.459533  -0.000000
    9       12.678062   0.000000
   10       15.054478   0.000000

  0.4666667E+00  0.6666667E-01  0.6666667E-01  0.3555556E-02
    1       -1.352714   1.000000
    2       -1.304138   1.000000
    3        4.101406   1.000000
    4        5.241624   1.000000
    5        6.137261   1.000000
    6        8.941340   1.025455
    7       10.027629  -0.000000
    8       10.517904  -0.000000
    9       12.738729   0.000000
   10       15.005494   0.000000

  0.1333333E+00  0.1333333E+00  0.6666667E-01  0.3555556E-02
    1       -4.626378   1.000000
    2        3.205290   1.000000
    3        4.488123   1.000000
    4        5.369047   1.000000
    5        6.728588   1.000000
    6        8.772693   1.000476
    7       10.279304  -0.000000
    8       10.370297  -0.000000
    9       11.386933  -0.000000
   10       16.375107   0.000000

  0.2000000E+00  0.1333333E+00  0.6666667E-01  0.7111111E-02
    1       -4.070157   1.000000
    2        2.372703   1.000000
    3        3.972234   1.000000
    4        5.349599   1.000000
    5        6.927880   1.000000
    6        8.513082   1.000000
    7        9.976622  -0.000000
    8       10.388120  -0.000000
    9       12.063647   0.000000
   10       15.799671   0.000000

  0.2666667E+00  0.1333333E+00  0.6666667E-01  0.7111111E-02
    1       -3.379248   1.000000
    2        1.397672   1.000000
    3        3.562871   1.000000
    4        5.345281   1.000000
    5        6.998205   1.000000
    6        8.420055   1.000000
    7        9.793840  -0.000000
    8       10.429999  -0.000000
    9       12.706969   0.000000
   10       15.353926   0.000000

  0.3333333E+00  0.1333333E+00  0.6666667E-01  0.7111111E-02
    1       -2.569803   1.000000
    2        0.360119   1.000000
    3        3.288618   1.000000
    4        5.363057   1.000000
    5        6.910896   1.000000
    6        8.468371   1.000000
    7        9.771033  -0.000000
    8       10.448180  -0.000000
    9       13.156557   0.000000
   10       15.118006   0.000000

  0.4000000E+00  0.1333333E+00  0.6666667E-01  0.7111111E-02
    1       -1.660673   1.000000
    2       -0.673583   1.000000
    3        3.151279   1.000000
    4        5.384792   1.000000
    5        6.815051   1.000000
    6        8.506139   1.000000
    7        9.858332  -0.000000
    8       10.418114  -0.000000
    9       13.356996   0.000000
   10       15.049682   0.000000

  0.2000000E+00  0.2000000E+00  0.6666667E-01  0.3555556E-02
    1       -3.453312   1.000000
    2        1.759276   1.000000
    3        3.154617   1.000000
    4        5.382537   1.000000
    5        7.413813   1.000000
    6        8.067468   1.000000
    7        9.705216  -0.000000
    8       10.462663  -0.000000
    9       12.824204   0.000000
   10       15.414918   0.000000

  0.2666667E+00  0.2000000E+00  0.6666667E-01  0.7111111E-02
    1       -2.710704   1.000000
    2        0.979965   1.000000
    3        2.548003   1.000000
    4        5.465124   1.000000
    5        7.497629   1.000000
    6        8.023862   1.000000
    7        9.528368  -0.000000
    8       10.452731  -0.000000
    9       13.528613   0.000000
   10       15.150563   0.000000

  0.3333333E+00  0.2000000E+00  0.6666667E-01  0.7111111E-02
    1       -1.861952   1.000000
    2        0.047551   1.000000
    3        2.225145   1.000000
    4        5.571978   1.000000
    5        7.195092   1.000000
    6        8.301427   1.000000
    7        9.560581  -0.000000
    8       10.312033  -0.000000
    9       13.992642   0.000000
   10       15.058191   0.000000

  0.4000000E+00  0.2000000E+00  0.6666667E-01  0.3555556E-02
    1       -1.003790   1.000000
    2       -0.850730   1.000000
    3        2.126679   1.000000
    4        5.627058   1.000000
    5        7.064302   1.000000
    6        8.385248   1.000000
    7        9.686138  -0.000000
    8       10.171121  -0.000000
    9       14.132640   0.000000
   10       15.065877   0.000000

  0.2666667E+00  0.2666667E+00  0.6666667E-01  0.3555556E-02
    1       -1.929342   1.000000
    2        0.530287   1.000000
    3        1.670643   1.000000
    4        5.670456   1.000000
    5        7.216137   1.000000
    6        8.395846   1.000000
    7        9.349744  -0.000059
    8       10.276281  -0.000000
    9       14.288568   0.000000
   10       15.029992   0.000000

  0.3333333E+00  0.2666667E+00  0.6666667E-01  0.7111111E-02
    1       -1.074058   1.000000
    2       -0.158351   1.000000
    3        1.221911   1.000000
    4        5.900105   1.000000
    5        6.831154   1.000000
    6        8.774280   1.000514
    7        9.416816  -0.000001
    8        9.937536  -0.000000
    9       14.716089   0.000000
   10       15.033171   0.000000

  0.3333333E+00  0.3333333E+00  0.6666667E-01  0.1185185E-02
    1       -0.395039   1.000000
    2       -0.395037   1.000000
    3        0.636203   1.000000
    4        6.334993   1.000000
    5        6.334994   1.000000
    6        9.364130  -0.000025
    7        9.364130  -0.000025
    8        9.421494  -0.000001
    9       15.022223   0.000000
   10       15.022223   0.000000

  0.3742002E-15  0.3742002E-15  0.1333333E+00  0.5925926E-03
    1       -5.428535   1.000000
    2        4.400803   1.000000
    3        5.370536   1.000000
    4        5.370538   1.000000
    5        7.667039   1.000000
    6        8.921530   1.035370
    7        8.921531   1.035370
    8       11.521493  -0.000000
    9       11.521494  -0.000000
   10       14.932844   0.000000

  0.6666667E-01  0.3777220E-15  0.1333333E+00  0.3555556E-02
    1       -5.345582   1.000000
    2        4.432709   1.000000
    3        5.125285   1.000000
    4        5.345121   1.000000
    5        7.449409   1.000000
    6        8.885612   1.024895
    7        9.183928  -0.030913
    8       11.363840  -0.000000
    9       11.411469  -0.000000
   10       15.149986   0.000000

  0.1333333E+00  0.3824091E-15  0.1333333E+00  0.3555556E-02
    1       -5.099243   1.000000
    2        4.438245   1.000000
    3        4.538198   1.000000
    4        5.261945   1.000000
    5        7.082249   1.000000
    6        8.823039   1.004186
    7        9.599366  -0.000000
    8       11.134163  -0.000000
    9       11.180198  -0.000000
   10       15.425345   0.000000

  0.2000000E+00  0.3806431E-15  0.1333333E+00  0.3555556E-02
    1       -4.696882   1.000000
    2        3.511783   1.000000
    3        4.651500   1.000000
    4        5.114315   1.000000
    5        6.725298   1.000000
    6        8.821042   1.003885
    7        9.783671  -0.000000
    8       10.937901  -0.000000
    9       11.241813  -0.000000
   10       15.556225   0.000000

  0.2666667E+00  0.3859547E-15  0.1333333E+00  0.3555556E-02
    1       -4.149621   1.000000
    2        2.446370   1.000000
    3        4.790482   1.000000
    4        4.920020   1.000000
    5        6.376626   1.000000
    6        8.927481   1.034273
    7        9.821722  -0.000000
    8       10.711708  -0.000000
    9       11.643807  -0.000000
   10       15.270657   0.000000

  0.3333333E+00  0.3635107E-15  0.1333333E+00  0.3555556E-02
    1       -3.471155   1.000000
    2        1.342320   1.000000
    3        4.721204   1.000000
    4        4.924083   1.000000
    5        6.048494   1.000000
    6        9.127011  -0.002500
    7        9.936945  -0.000000
    8       10.499442  -0.000000
    9       12.041152   0.000000
   10       14.825168   0.000000

  0.4000000E+00  0.3993534E-15  0.1333333E+00  0.3555556E-02
    1       -2.676703   1.000000
    2        0.251087   1.000000
    3        4.562388   1.000000
    4        5.039183   1.000000
    5        5.780445   1.000000
    6        9.366482  -0.000022
    7       10.113393  -0.000000
    8       10.299273  -0.000000
    9       12.313217   0.000000
   10       14.467312   0.000000

  0.4666667E+00  0.3562316E-15  0.1333333E+00  0.3555556E-02
    1       -1.784063   1.000000
    2       -0.793037   1.000000
    3        4.475263   1.000000
    4        5.117037   1.000000
    5        5.619386   1.000000
    6        9.564120  -0.000000
    7       10.137958  -0.000000
    8       10.239475  -0.000000
    9       12.459636   0.000000
   10       14.256076   0.000000

  0.6666667E-01  0.6666667E-01  0.1333333E+00  0.3555556E-02
    1       -5.180931   1.000000
    2        4.492081   1.000000
    3        4.700281   1.000000
    4        5.241557   1.000000
    5        7.219552   1.000000
    6        8.772259   1.000466
    7        9.552280  -0.000000
    8       11.134457  -0.000000
    9       11.276766  -0.000000
   10       15.496167   0.000000

  0.1333333E+00  0.6666667E-01  0.1333333E+00  0.7111111E-02
    1       -4.856574   1.000000
    2        3.947300   1.000000
    3        4.597235   1.000000
    4        5.008275   1.000000
    5        7.019843   1.000000
    6        8.611723   1.000000
    7        9.910817  -0.000000
    8       10.905264  -0.000000
    9       11.218481  -0.000000
   10       15.829664   0.000000

  0.2000000E+00  0.6666667E-01  0.1333333E+00  0.7111111E-02
    1       -4.381700   1.000000
    2        2.980183   1.000000
    3        4.678471   1.000000
    4        4.768515   1.000000
    5        6.811796   1.000000
    6        8.572650   1.000000
    7       10.008980  -0.000000
    8       10.737054  -0.000000
    9       11.498673  -0.000000
   10       15.629978   0.000000

  0.2666667E+00  0.6666667E-01  0.1333333E+00  0.7111111E-02
    1       -3.768784   1.000000
    2        1.915668   1.000000
    3        4.422706   1.000000
    4        4.878894   1.000000
    5        6.535613   1.000000
    6        8.716567   1.000021
    7       10.062670  -0.000000
    8       10.550496  -0.000000
    9       11.951839   0.000000
   10       15.121277   0.000000

  0.3333333E+00  0.6666667E-01  0.1333333E+00  0.7111111E-02
    1       -3.032380   1.000000
    2        0.829208   1.000000
    3        4.189707   1.000000
    4        5.010778   1.000000
    5        6.244343   1.000000
    6        8.977765   0.936724
    7       10.183735  -0.000000
    8       10.353698  -0.000000
    9       12.335349   0.000000
   10       14.677034   0.000000

  0.4000000E+00  0.6666667E-01  0.1333333E+00  0.7111111E-02
    1       -2.188810   1.000000
    2       -0.233059   1.000000
    3        4.037086   1.000000
    4        5.120728   1.000000
    5        6.017464   1.000000
    6        9.245131  -0.007135
    7       10.164602  -0.000000
    8       10.315284  -0.000000
    9       12.582133   0.000000
   10       14.377352   0.000000

  0.4666667E+00  0.6666667E-01  0.1333333E+00  0.3555556E-02
    1       -1.330541   1.000000
    2       -1.165463   1.000000
    3        3.984143   1.000000
    4        5.168604   1.000000
    5        5.927642   1.000000
    6        9.374445  -0.000013
    7       10.069831  -0.000000
    8       10.368959  -0.000000
    9       12.673986   0.000000
   10       14.261833   0.000000

  0.1333333E+00  0.1333333E+00  0.1333333E+00  0.3555556E-02
    1       -4.459653   1.000000
    2        3.278902   1.000000
    3        4.439329   1.000000
    4        4.736556   1.000000
    5        7.183429   1.000000
    6        8.232308   1.000000
    7       10.201094  -0.000000
    8       10.665087  -0.000000
    9       11.464486  -0.000000
   10       16.013521   0.000000

  0.2000000E+00  0.1333333E+00  0.1333333E+00  0.7111111E-02
    1       -3.919045   1.000000
    2        2.425655   1.000000
    3        3.921698   1.000000
    4        4.860462   1.000000
    5        7.227757   1.000000
    6        8.073538   1.000000
    7       10.283206  -0.000000
    8       10.501577  -0.000000
    9       11.941356   0.000000
   10       15.482847   0.000000

  0.2666667E+00  0.1333333E+00  0.1333333E+00  0.7111111E-02
    1       -3.248195   1.000000
    2        1.440354   1.000000
    3        3.524455   1.000000
    4        5.007832   1.000000
    5        6.926250   1.000000
    6        8.350639   1.000000
    7       10.272328  -0.000000
    8       10.388844  -0.000000
    9       12.467354   0.000000
   10       14.981208   0.000000

  0.3333333E+00  0.1333333E+00  0.1333333E+00  0.7111111E-02
    1       -2.463088   1.000000
    2        0.410647   1.000000
    3        3.261665   1.000000
    4        5.157303   1.000000
    5        6.586250   1.000000
    6        8.738103   1.000076
    7       10.132090  -0.000000
    8       10.394253  -0.000000
    9       12.899065   0.000000
   10       14.606424   0.000000

  0.4000000E+00  0.1333333E+00  0.1333333E+00  0.7111111E-02
    1       -1.586861   1.000000
    2       -0.596671   1.000000
    3        3.130283   1.000000
    4        5.268362   1.000000
    5        6.367521   1.000000
    6        9.025572   0.634204
    7        9.993806  -0.000000
    8       10.410209  -0.000000
    9       13.159881   0.000000
   10       14.383098   0.000000

  0.2000000E+00  0.2000000E+00  0.1333333E+00  0.3555556E-02
    1       -3.320503   1.000000
    2        1.802594   1.000000
    3        3.130181   1.000000
    4        5.009636   1.000000
    5        7.477643   1.000000
    6        7.810573   1.000000
    7       10.276973  -0.000000
    8       10.421854  -0.000000
    9       12.530325   0.000000
   10       15.151393   0.000000

  0.2666667E+00  0.2000000E+00  0.1333333E+00  0.7111111E-02
    1       -2.601198   1.000000
    2        1.015680   1.000000
    3        2.562438   1.000000
    4        5.190041   1.000000
    5        7.019310   1.000000
    6        8.317417   1.000000
    7       10.082710  -0.000000
    8       10.426385  -0.000000
    9       13.134326   0.000000
   10       14.839387   0.000000
