 running on    4 total cores
 distrk:  each k-point on    4 cores,    1 groups
 distr:  one band on    2 cores,    2 groups
 using from now: INCAR     
 vasp.5.4.4.18Apr17-6-g9f103f2a35 (build Dec  7 2020 12:43:57) complex           
 POSCAR found type information on POSCAR  V  B 
 POSCAR found :  2 types and       3 ions
 scaLAPACK will be used
 LDA part: xc-table for Pade appr. of Perdew
 POSCAR, INCAR and KPOINTS ok, starting setup
 FFT: planning ...
 WAVECAR not read
 augmentation electrons   11.006997382906679     
 soft         electrons   0.0000000000000000     
 augmentation electrons   11.006997382906679     
 soft         electrons   0.0000000000000000     
 total        electrons   11.006997382906679     
 augmentation electrons   11.006997382906679     
 soft         electrons   0.0000000000000000     
 augmentation electrons   11.006997382906679     
 soft         electrons   0.0000000000000000     
 total        electrons   11.006997382906679     
 total        electrons   11.006997382906679     
 total        electrons   11.006997382906679     
 augmentation electrons   34.444668454806155     
 soft         electrons   0.0000000000000000     
 total        electrons   34.444668454806155     
 augmentation electrons   34.444668454806155     
 soft         electrons   0.0000000000000000     
 augmentation electrons   34.444668454806155     
 soft         electrons   0.0000000000000000     
 total        electrons   34.444668454806155     
 augmentation electrons   34.444668454806155     
 soft         electrons   0.0000000000000000     
 total        electrons   34.444668454806155     
 total        electrons   34.444668454806155     
 entering main loop
       N       E                     dE             d eps       ncg     rms          rms(c)
DAV:   1     0.327743132826E+02    0.32774E+02   -0.47059E+03  4408   0.109E+03
DAV:   2    -0.263494086359E+02   -0.59124E+02   -0.54954E+02  4446   0.189E+02
DAV:   3    -0.304666367541E+02   -0.41172E+01   -0.39422E+01  6054   0.593E+01
DAV:   4    -0.305716654176E+02   -0.10503E+00   -0.10306E+00  6440   0.796E+00
DAV:   5    -0.305725562560E+02   -0.89084E-03   -0.88983E-03  6038   0.530E-01    0.260E+01
RMM:   6    -0.254230212783E+02    0.51495E+01   -0.34310E+01  4330   0.721E+01    0.598E+00
RMM:   7    -0.245704652398E+02    0.85256E+00   -0.35128E+00  4365   0.245E+01    0.391E+00
RMM:   8    -0.245542636246E+02    0.16202E-01   -0.52232E-01  4859   0.431E+00    0.128E+00
RMM:   9    -0.245491859215E+02    0.50777E-02   -0.10341E-01  4375   0.429E+00    0.808E-01
RMM:  10    -0.245395844963E+02    0.96014E-02   -0.15708E-02  4354   0.185E+00    0.136E-01
RMM:  11    -0.245395204721E+02    0.64024E-04   -0.62659E-04  4767   0.276E-01    0.422E-02
RMM:  12    -0.245395250789E+02   -0.46068E-05   -0.90981E-05  4709   0.978E-02    0.109E-02
RMM:  13    -0.245395226619E+02    0.24171E-05   -0.73274E-06  3850   0.267E-02    0.293E-03
RMM:  14    -0.245395222200E+02    0.44186E-06   -0.80854E-07  3115   0.973E-03
   1 F= -.24539522E+02 E0= -.24539806E+02  d E =-.245395E+02
 curvature:   0.00 expect dE= 0.000E+00 dE for cont linesearch  0.000E+00
 trial: gam= 0.00000 g(F)=  0.274E-44 g(S)=  0.791E-02 ort = 0.000E+00 (trialstep = 0.100E+01)
 search vector abs. value=  0.791E-02
 bond charge predicted
       N       E                     dE             d eps       ncg     rms          rms(c)
DAV:   1    -0.245455345589E+02   -0.60119E-02   -0.15987E-01  4648   0.361E+00    0.308E-01
RMM:   2    -0.245441058420E+02    0.14287E-02   -0.12554E-02  4445   0.125E+00    0.352E-01
RMM:   3    -0.245434095767E+02    0.69627E-03   -0.13784E-03  4413   0.493E-01    0.138E-01
RMM:   4    -0.245433041695E+02    0.10541E-03   -0.47240E-04  4502   0.269E-01    0.329E-02
RMM:   5    -0.245433108249E+02   -0.66554E-05   -0.10299E-04  4688   0.642E-02    0.118E-02
RMM:   6    -0.245433099264E+02    0.89852E-06   -0.37478E-06  3524   0.290E-02
   2 F= -.24543310E+02 E0= -.24543516E+02  d E =-.378771E-02
 trial-energy change:   -0.003788  1 .order   -0.003784   -0.007911    0.000343
 step:   0.9584(harm=  0.9584)  dis= 0.00000  next Energy=   -24.543313 (dE=-0.379E-02)
 reached required accuracy - stopping structural energy minimisation
 writing wavefunctions
 augmentation electrons   1.8546992262932558     
 soft         electrons   9.1552688035516514     
 augmentation electrons   1.8546992262932558     
 soft         electrons   9.1552688035516514     
 augmentation electrons   1.8546992262932558     
 soft         electrons   9.1552688035516514     
 augmentation electrons   1.8546992262932558     
 soft         electrons   9.1552688035516514     
 total        electrons   11.009968029844908     
 total        electrons   11.009968029844908     
 total        electrons   11.009968029844908     
 total        electrons   11.009968029844908     
