   74   74    1    1
  0.2110353E+02  0.1053953E-08  0.6141200E-09  0.2412750E-08  0.5000000E-15
   1.0000000000000000E-004
  CAR 
 Name                                    
    284     23    184

  0.3742002E-15  0.3742002E-15  0.1262379E-14  0.2222222E-01
    1      -13.912895   1.000000
    2      -12.781033   1.000000
    3      -12.717799   1.000000
    4      -12.683316   1.000000
    5      -11.749654   1.000000
    6      -11.611940   1.000000
    7      -11.574427   1.000000
    8      -11.530639   1.000000
    9      -11.351370   1.000000
   10      -11.223140   1.000000
   11      -11.136619   1.000000
   12      -11.026299   1.000000
   13      -10.985039   1.000000
   14      -10.665750   1.000000
   15      -10.405605   1.000000
   16      -10.238812   1.000000
   17      -10.108021   1.000000
   18      -10.069764   1.000000
   19       -9.748643   1.000000
   20       -9.724648   1.000000
   21       -9.600419   1.000000
   22       -9.457154   1.000000
   23       -9.430428   1.000000
   24       -9.282859   1.000000
   25       -8.849362   1.000000
   26       -8.806200   1.000000
   27       -8.616783   1.000000
   28       -8.481292   1.000000
   29       -8.421815   1.000000
   30       -8.231899   1.000000
   31       -8.094590   1.000000
   32       -7.810681   1.000000
   33       -7.663889   1.000000
   34       -7.316523   1.000000
   35       -7.217479   1.000000
   36       -7.182658   1.000000
   37       -7.100221   1.000000
   38       -7.033228   1.000000
   39       -6.879724   1.000000
   40       -6.730776   1.000000
   41       -6.687524   1.000000
   42       -6.665702   1.000000
   43       -6.595797   1.000000
   44       -6.536588   1.000000
   45       -6.494103   1.000000
   46       -6.367640   1.000000
   47       -6.361123   1.000000
   48       -6.106776   1.000000
   49       -6.042445   1.000000
   50       -6.013159   1.000000
   51       -5.836906   1.000000
   52       -5.790925   1.000000
   53       -5.753420   1.000000
   54       -5.574356   1.000000
   55       -5.557732   1.000000
   56       -5.529272   1.000000
   57       -5.516083   1.000000
   58       -5.326615   1.000000
   59       -5.310419   1.000000
   60       -5.191104   1.000000
   61       -5.165341   1.000000
   62       -5.088813   1.000000
   63       -4.888948   1.000000
   64       -4.801753   1.000000
   65       -4.648126   1.000000
   66       -4.628048   1.000000
   67       -4.622889   1.000000
   68       -4.595712   1.000000
   69       -4.503479   1.000000
   70       -4.368597   1.000000
   71       -4.327915   1.000000
   72       -4.282375   1.000000
   73       -4.241452   1.000000
   74       -4.193273   1.000000
   75       -4.108027   1.000000
   76       -4.065920   1.000000
   77       -4.042304   1.000000
   78       -4.001361   1.000000
   79       -3.907111   1.000000
   80       -3.868842   1.000000
   81       -3.859807   1.000000
   82       -3.851654   1.000000
   83       -3.804920   1.000000
   84       -3.782235   1.000000
   85       -3.763268   1.000000
   86       -3.663969   1.000000
   87       -3.570734   1.000000
   88       -3.536912   1.000000
   89       -3.505059   1.000000
   90       -3.496986   1.000000
   91       -3.395410   1.000000
   92       -3.379429   1.000000
   93       -3.280520   1.000000
   94       -3.137246   1.000000
   95       -2.982640   1.000000
   96       -2.958541   1.000000
   97       -2.921800   1.000000
   98       -2.771833   1.000000
   99       -2.768515   1.000000
  100       -2.679618   1.000000
  101       -2.660148   1.000000
  102       -2.561475   1.000000
  103       -2.414966   1.000000
  104       -2.344221   1.000000
  105       -2.329332   1.000000
  106       -2.312037   1.000000
  107       -2.216734   1.000000
  108       -2.084739   1.000000
  109       -2.071130   1.000000
  110       -2.068509   1.000000
  111       -1.935533   1.000000
  112       -1.919048   1.000000
  113       -1.902858   1.000000
  114       -1.840034   1.000000
  115       -1.731250   1.000000
  116       -1.663443   1.000000
  117       -1.586461   1.000000
  118       -1.570749   1.000000
  119       -1.532881   1.000000
  120       -1.405153   1.000000
  121       -1.352367   1.000000
  122       -1.112044   1.000000
  123       -0.924030   1.000000
  124       -0.857187   1.000000
  125       -0.759113   1.000000
  126       -0.687423   1.000000
  127       -0.655392   1.000000
  128       -0.373662   1.000000
  129       -0.371360   1.000000
  130       -0.319337   1.000000
  131       -0.145100   1.000000
  132       -0.098399   1.000000
  133       -0.035950   1.000000
  134        0.051941   1.000000
  135        0.224770   1.000031
  136        0.280033   1.000615
  137        0.288204   1.000902
  138        0.337018   1.006398
  139        0.384516   1.023430
  140        0.412637   1.034443
  141        0.472761   0.963203
  142        0.543682   0.500387
  143        0.590611   0.147495
  144        0.663882  -0.035372
  145        0.670029  -0.035244
  146        0.710567  -0.019945
  147        0.731441  -0.011648
  148        0.819177  -0.000345
  149        0.853215  -0.000054
  150        0.887889  -0.000006
  151        1.111491  -0.000000
  152        1.145282  -0.000000
  153        1.198775  -0.000000
  154        1.236973  -0.000000
  155        1.248238  -0.000000
  156        1.336609  -0.000000
  157        1.386232  -0.000000
  158        1.390823  -0.000000
  159        1.433945  -0.000000
  160        1.458114  -0.000000
  161        1.490886  -0.000000
  162        1.536278  -0.000000
  163        1.584755  -0.000000
  164        1.649695  -0.000000
  165        1.652787  -0.000000
  166        1.768825  -0.000000
  167        1.777723  -0.000000
  168        1.796013  -0.000000
  169        1.801288  -0.000000
  170        1.810168  -0.000000
  171        1.848652  -0.000000
  172        1.880468  -0.000000
  173        1.930148  -0.000000
  174        2.071467  -0.000000
  175        2.170581  -0.000000
  176        2.365772  -0.000000
  177        2.404617  -0.000000
  178        2.432531  -0.000000
  179        2.529692  -0.000000
  180        2.624676  -0.000000
  181        2.643317  -0.000000
  182        2.984224  -0.000000
  183        3.802338   0.000000
  184        3.982880   0.000000

  0.2000000E+00  0.3742002E-15  0.1262379E-14  0.4444444E-01
    1      -13.864306   1.000000
    2      -13.156986   1.000000
    3      -12.638677   1.000000
    4      -12.269079   1.000000
    5      -11.976793   1.000000
    6      -11.738953   1.000000
    7      -11.582996   1.000000
    8      -11.282604   1.000000
    9      -11.219892   1.000000
   10      -11.136687   1.000000
   11      -11.100965   1.000000
   12      -11.064230   1.000000
   13      -10.901655   1.000000
   14      -10.731446   1.000000
   15      -10.523841   1.000000
   16      -10.514067   1.000000
   17      -10.467327   1.000000
   18       -9.827963   1.000000
   19       -9.716731   1.000000
   20       -9.661837   1.000000
   21       -9.473097   1.000000
   22       -9.453709   1.000000
   23       -9.410754   1.000000
   24       -9.333503   1.000000
   25       -9.026612   1.000000
   26       -8.821500   1.000000
   27       -8.463701   1.000000
   28       -8.301049   1.000000
   29       -8.176451   1.000000
   30       -8.139594   1.000000
   31       -8.080984   1.000000
   32       -8.026044   1.000000
   33       -7.570782   1.000000
   34       -7.479052   1.000000
   35       -7.371371   1.000000
   36       -7.214789   1.000000
   37       -7.160033   1.000000
   38       -7.094600   1.000000
   39       -7.059056   1.000000
   40       -6.785615   1.000000
   41       -6.710905   1.000000
   42       -6.659788   1.000000
   43       -6.607719   1.000000
   44       -6.579984   1.000000
   45       -6.429591   1.000000
   46       -6.357378   1.000000
   47       -6.138031   1.000000
   48       -6.120223   1.000000
   49       -6.021113   1.000000
   50       -5.977118   1.000000
   51       -5.792269   1.000000
   52       -5.769353   1.000000
   53       -5.708081   1.000000
   54       -5.558572   1.000000
   55       -5.520376   1.000000
   56       -5.456559   1.000000
   57       -5.424343   1.000000
   58       -5.347806   1.000000
   59       -5.299628   1.000000
   60       -5.207186   1.000000
   61       -5.148351   1.000000
   62       -5.111683   1.000000
   63       -4.982196   1.000000
   64       -4.775759   1.000000
   65       -4.759807   1.000000
   66       -4.697355   1.000000
   67       -4.613250   1.000000
   68       -4.594315   1.000000
   69       -4.515262   1.000000
   70       -4.363119   1.000000
   71       -4.276572   1.000000
   72       -4.264951   1.000000
   73       -4.174391   1.000000
   74       -4.147869   1.000000
   75       -4.113688   1.000000
   76       -4.099424   1.000000
   77       -4.047762   1.000000
   78       -4.026679   1.000000
   79       -3.887190   1.000000
   80       -3.884733   1.000000
   81       -3.865687   1.000000
   82       -3.849726   1.000000
   83       -3.828082   1.000000
   84       -3.754978   1.000000
   85       -3.742057   1.000000
   86       -3.607031   1.000000
   87       -3.554132   1.000000
   88       -3.532498   1.000000
   89       -3.523333   1.000000
   90       -3.471103   1.000000
   91       -3.429574   1.000000
   92       -3.411963   1.000000
   93       -3.361544   1.000000
   94       -3.105572   1.000000
   95       -3.076513   1.000000
   96       -3.035067   1.000000
   97       -2.966078   1.000000
   98       -2.858890   1.000000
   99       -2.754028   1.000000
  100       -2.689283   1.000000
  101       -2.676214   1.000000
  102       -2.621168   1.000000
  103       -2.424461   1.000000
  104       -2.311037   1.000000
  105       -2.216246   1.000000
  106       -2.206409   1.000000
  107       -2.151470   1.000000
  108       -2.136457   1.000000
  109       -2.071912   1.000000
  110       -1.971900   1.000000
  111       -1.916497   1.000000
  112       -1.895280   1.000000
  113       -1.853481   1.000000
  114       -1.701351   1.000000
  115       -1.697858   1.000000
  116       -1.677066   1.000000
  117       -1.633216   1.000000
  118       -1.580193   1.000000
  119       -1.416233   1.000000
  120       -1.337705   1.000000
  121       -1.315613   1.000000
  122       -1.097693   1.000000
  123       -1.031302   1.000000
  124       -0.869825   1.000000
  125       -0.796345   1.000000
  126       -0.791820   1.000000
  127       -0.726527   1.000000
  128       -0.476311   1.000000
  129       -0.446818   1.000000
  130       -0.378102   1.000000
  131       -0.326549   1.000000
  132       -0.197690   1.000000
  133       -0.123996   1.000000
  134       -0.039974   1.000000
  135        0.099484   1.000000
  136        0.200593   1.000007
  137        0.295078   1.001230
  138        0.377063   1.020023
  139        0.426008   1.035086
  140        0.484392   0.917011
  141        0.566895   0.309653
  142        0.630607  -0.005614
  143        0.651347  -0.031335
  144        0.701540  -0.024079
  145        0.717040  -0.017128
  146        0.739101  -0.009257
  147        0.758177  -0.004876
  148        0.785837  -0.001635
  149        0.836346  -0.000140
  150        0.914741  -0.000001
  151        1.148169  -0.000000
  152        1.202401  -0.000000
  153        1.240028  -0.000000
  154        1.324362  -0.000000
  155        1.338216  -0.000000
  156        1.351162  -0.000000
  157        1.359137  -0.000000
  158        1.376011  -0.000000
  159        1.477992  -0.000000
  160        1.504053  -0.000000
  161        1.555085  -0.000000
  162        1.576139  -0.000000
  163        1.612078  -0.000000
  164        1.662137  -0.000000
  165        1.695007  -0.000000
  166        1.736204  -0.000000
  167        1.757951  -0.000000
  168        1.789737  -0.000000
  169        1.794024  -0.000000
  170        1.827147  -0.000000
  171        1.895599  -0.000000
  172        1.915030  -0.000000
  173        1.967656  -0.000000
  174        2.077840  -0.000000
  175        2.089381  -0.000000
  176        2.151611  -0.000000
  177        2.235397  -0.000000
  178        2.249120  -0.000000
  179        2.382217  -0.000000
  180        2.626313  -0.000000
  181        2.708550  -0.000000
  182        2.744222  -0.000000
  183        3.495217   0.000000
  184        3.916745   0.000000

  0.4000000E+00  0.3742002E-15  0.1262379E-14  0.4444444E-01
    1      -13.719644   1.000000
    2      -13.482011   1.000000
    3      -12.504358   1.000000
    4      -12.282286   1.000000
    5      -11.728351   1.000000
    6      -11.707075   1.000000
    7      -11.654070   1.000000
    8      -11.212256   1.000000
    9      -11.204294   1.000000
   10      -11.138919   1.000000
   11      -11.033939   1.000000
   12      -10.981849   1.000000
   13      -10.880710   1.000000
   14      -10.800072   1.000000
   15      -10.761682   1.000000
   16      -10.615806   1.000000
   17      -10.599387   1.000000
   18      -10.042585   1.000000
   19       -9.729611   1.000000
   20       -9.687128   1.000000
   21       -9.453568   1.000000
   22       -9.441592   1.000000
   23       -9.285513   1.000000
   24       -9.234987   1.000000
   25       -9.018702   1.000000
   26       -8.762642   1.000000
   27       -8.342219   1.000000
   28       -8.195961   1.000000
   29       -7.959760   1.000000
   30       -7.944752   1.000000
   31       -7.843173   1.000000
   32       -7.838623   1.000000
   33       -7.796215   1.000000
   34       -7.687433   1.000000
   35       -7.577060   1.000000
   36       -7.527362   1.000000
   37       -7.392380   1.000000
   38       -7.345757   1.000000
   39       -7.141639   1.000000
   40       -6.876680   1.000000
   41       -6.748600   1.000000
   42       -6.626634   1.000000
   43       -6.515743   1.000000
   44       -6.475563   1.000000
   45       -6.258965   1.000000
   46       -6.255609   1.000000
   47       -6.153855   1.000000
   48       -6.042390   1.000000
   49       -5.959325   1.000000
   50       -5.898594   1.000000
   51       -5.874211   1.000000
   52       -5.797429   1.000000
   53       -5.661650   1.000000
   54       -5.639029   1.000000
   55       -5.514872   1.000000
   56       -5.443778   1.000000
   57       -5.367792   1.000000
   58       -5.291703   1.000000
   59       -5.227772   1.000000
   60       -5.193101   1.000000
   61       -5.107466   1.000000
   62       -5.021207   1.000000
   63       -4.862476   1.000000
   64       -4.833904   1.000000
   65       -4.815476   1.000000
   66       -4.709158   1.000000
   67       -4.665135   1.000000
   68       -4.624639   1.000000
   69       -4.485256   1.000000
   70       -4.446941   1.000000
   71       -4.318847   1.000000
   72       -4.256895   1.000000
   73       -4.235654   1.000000
   74       -4.169294   1.000000
   75       -4.094675   1.000000
   76       -4.072328   1.000000
   77       -4.055498   1.000000
   78       -4.027417   1.000000
   79       -3.897888   1.000000
   80       -3.889658   1.000000
   81       -3.870339   1.000000
   82       -3.806549   1.000000
   83       -3.793640   1.000000
   84       -3.775271   1.000000
   85       -3.674294   1.000000
   86       -3.579369   1.000000
   87       -3.563439   1.000000
   88       -3.543922   1.000000
   89       -3.525739   1.000000
   90       -3.506607   1.000000
   91       -3.359716   1.000000
   92       -3.326103   1.000000
   93       -3.262218   1.000000
   94       -3.211159   1.000000
   95       -3.201213   1.000000
   96       -3.118219   1.000000
   97       -3.109497   1.000000
   98       -3.036816   1.000000
   99       -2.896195   1.000000
  100       -2.804101   1.000000
  101       -2.710037   1.000000
  102       -2.487167   1.000000
  103       -2.398721   1.000000
  104       -2.330696   1.000000
  105       -2.218081   1.000000
  106       -2.189780   1.000000
  107       -1.998723   1.000000
  108       -1.988490   1.000000
  109       -1.924299   1.000000
  110       -1.841459   1.000000
  111       -1.805801   1.000000
  112       -1.796641   1.000000
  113       -1.754978   1.000000
  114       -1.725965   1.000000
  115       -1.714708   1.000000
  116       -1.679810   1.000000
  117       -1.541131   1.000000
  118       -1.424992   1.000000
  119       -1.313817   1.000000
  120       -1.243171   1.000000
  121       -1.228423   1.000000
  122       -1.140933   1.000000
  123       -1.068416   1.000000
  124       -1.019621   1.000000
  125       -0.938453   1.000000
  126       -0.860753   1.000000
  127       -0.822909   1.000000
  128       -0.790999   1.000000
  129       -0.767932   1.000000
  130       -0.582430   1.000000
  131       -0.385892   1.000000
  132       -0.370832   1.000000
  133       -0.150070   1.000000
  134       -0.107596   1.000000
  135        0.071941   1.000000
  136        0.274165   1.000462
  137        0.302628   1.001708
  138        0.354999   1.011309
  139        0.373168   1.018304
  140        0.434801   1.032083
  141        0.532661   0.593021
  142        0.591208   0.144054
  143        0.643796  -0.025199
  144        0.750706  -0.006340
  145        0.756727  -0.005137
  146        0.783254  -0.001825
  147        0.841161  -0.000108
  148        0.963226  -0.000000
  149        1.004451  -0.000000
  150        1.007336  -0.000000
  151        1.093434  -0.000000
  152        1.242749  -0.000000
  153        1.266175  -0.000000
  154        1.337200  -0.000000
  155        1.396837  -0.000000
  156        1.437143  -0.000000
  157        1.476647  -0.000000
  158        1.545491  -0.000000
  159        1.553201  -0.000000
  160        1.585044  -0.000000
  161        1.599134  -0.000000
  162        1.622721  -0.000000
  163        1.672396  -0.000000
  164        1.696480  -0.000000
  165        1.718105  -0.000000
  166        1.736098  -0.000000
  167        1.764103  -0.000000
  168        1.790294  -0.000000
  169        1.835591  -0.000000
  170        1.869746  -0.000000
  171        1.878749  -0.000000
  172        1.892690  -0.000000
  173        1.953854  -0.000000
  174        2.007302  -0.000000
  175        2.042563  -0.000000
  176        2.081437  -0.000000
  177        2.108055  -0.000000
  178        2.129504  -0.000000
  179        2.160215  -0.000000
  180        2.419227  -0.000000
  181        2.551355  -0.000000
  182        2.745214  -0.000000
  183        3.106522  -0.000000
  184        3.257158  -0.000000

  0.3742002E-15  0.1111111E+00  0.1262379E-14  0.4444444E-01
    1      -13.866098   1.000000
    2      -12.741428   1.000000
    3      -12.684998   1.000000
    4      -12.643880   1.000000
    5      -11.854318   1.000000
    6      -11.586649   1.000000
    7      -11.565526   1.000000
    8      -11.543638   1.000000
    9      -11.390970   1.000000
   10      -11.265632   1.000000
   11      -11.113801   1.000000
   12      -11.034292   1.000000
   13      -10.989451   1.000000
   14      -10.637902   1.000000
   15      -10.427117   1.000000
   16      -10.215968   1.000000
   17      -10.089262   1.000000
   18      -10.031497   1.000000
   19       -9.753360   1.000000
   20       -9.708605   1.000000
   21       -9.633645   1.000000
   22       -9.486423   1.000000
   23       -9.439466   1.000000
   24       -9.271635   1.000000
   25       -8.870305   1.000000
   26       -8.784677   1.000000
   27       -8.617024   1.000000
   28       -8.475032   1.000000
   29       -8.419313   1.000000
   30       -8.252924   1.000000
   31       -7.932213   1.000000
   32       -7.829604   1.000000
   33       -7.754810   1.000000
   34       -7.396187   1.000000
   35       -7.293444   1.000000
   36       -7.211384   1.000000
   37       -7.143167   1.000000
   38       -7.001385   1.000000
   39       -6.866153   1.000000
   40       -6.734514   1.000000
   41       -6.629647   1.000000
   42       -6.601435   1.000000
   43       -6.578121   1.000000
   44       -6.540811   1.000000
   45       -6.497273   1.000000
   46       -6.365630   1.000000
   47       -6.344239   1.000000
   48       -6.110335   1.000000
   49       -6.089308   1.000000
   50       -5.954928   1.000000
   51       -5.828136   1.000000
   52       -5.777246   1.000000
   53       -5.730702   1.000000
   54       -5.605225   1.000000
   55       -5.565422   1.000000
   56       -5.514356   1.000000
   57       -5.431285   1.000000
   58       -5.308614   1.000000
   59       -5.240663   1.000000
   60       -5.154150   1.000000
   61       -5.125068   1.000000
   62       -5.085469   1.000000
   63       -4.895501   1.000000
   64       -4.764046   1.000000
   65       -4.719931   1.000000
   66       -4.593672   1.000000
   67       -4.584207   1.000000
   68       -4.535380   1.000000
   69       -4.505363   1.000000
   70       -4.372873   1.000000
   71       -4.327903   1.000000
   72       -4.302176   1.000000
   73       -4.278246   1.000000
   74       -4.207861   1.000000
   75       -4.129908   1.000000
   76       -4.094398   1.000000
   77       -4.049007   1.000000
   78       -4.002092   1.000000
   79       -3.982979   1.000000
   80       -3.976966   1.000000
   81       -3.940713   1.000000
   82       -3.913217   1.000000
   83       -3.885579   1.000000
   84       -3.753073   1.000000
   85       -3.691796   1.000000
   86       -3.645509   1.000000
   87       -3.618052   1.000000
   88       -3.568984   1.000000
   89       -3.521626   1.000000
   90       -3.479699   1.000000
   91       -3.446323   1.000000
   92       -3.420531   1.000000
   93       -3.344797   1.000000
   94       -3.187442   1.000000
   95       -2.934277   1.000000
   96       -2.875180   1.000000
   97       -2.848951   1.000000
   98       -2.723004   1.000000
   99       -2.701062   1.000000
  100       -2.668433   1.000000
  101       -2.646011   1.000000
  102       -2.571487   1.000000
  103       -2.492756   1.000000
  104       -2.450438   1.000000
  105       -2.331354   1.000000
  106       -2.263759   1.000000
  107       -2.206365   1.000000
  108       -2.163119   1.000000
  109       -2.145266   1.000000
  110       -2.063804   1.000000
  111       -1.985518   1.000000
  112       -1.979691   1.000000
  113       -1.875778   1.000000
  114       -1.811728   1.000000
  115       -1.788502   1.000000
  116       -1.683905   1.000000
  117       -1.530543   1.000000
  118       -1.519493   1.000000
  119       -1.484425   1.000000
  120       -1.343446   1.000000
  121       -1.334087   1.000000
  122       -0.999045   1.000000
  123       -0.933730   1.000000
  124       -0.888379   1.000000
  125       -0.796310   1.000000
  126       -0.719972   1.000000
  127       -0.626677   1.000000
  128       -0.580457   1.000000
  129       -0.428804   1.000000
  130       -0.284907   1.000000
  131       -0.193211   1.000000
  132       -0.156930   1.000000
  133        0.046135   1.000000
  134        0.092261   1.000000
  135        0.133581   1.000000
  136        0.207764   1.000011
  137        0.279818   1.000608
  138        0.304679   1.001862
  139        0.325443   1.004238
  140        0.371897   1.017757
  141        0.459997   0.998984
  142        0.492663   0.875886
  143        0.630804  -0.006003
  144        0.644606  -0.026015
  145        0.652879  -0.032203
  146        0.756285  -0.005218
  147        0.821197  -0.000311
  148        0.854349  -0.000051
  149        0.999435  -0.000000
  150        1.060663  -0.000000
  151        1.130675  -0.000000
  152        1.157067  -0.000000
  153        1.182407  -0.000000
  154        1.254919  -0.000000
  155        1.317927  -0.000000
  156        1.322651  -0.000000
  157        1.342728  -0.000000
  158        1.398358  -0.000000
  159        1.504091  -0.000000
  160        1.521505  -0.000000
  161        1.528312  -0.000000
  162        1.531132  -0.000000
  163        1.550945  -0.000000
  164        1.577917  -0.000000
  165        1.656662  -0.000000
  166        1.713840  -0.000000
  167        1.756914  -0.000000
  168        1.788334  -0.000000
  169        1.814738  -0.000000
  170        1.844326  -0.000000
  171        1.849482  -0.000000
  172        1.881519  -0.000000
  173        1.936589  -0.000000
  174        1.960459  -0.000000
  175        1.985153  -0.000000
  176        2.024297  -0.000000
  177        2.107943  -0.000000
  178        2.140377  -0.000000
  179        2.186530  -0.000000
  180        2.267156  -0.000000
  181        2.441569  -0.000000
  182        2.598272  -0.000000
  183        2.700429  -0.000000
  184        2.792937  -0.000000

  0.2000000E+00  0.1111111E+00  0.1262379E-14  0.4444444E-01
    1      -13.817897   1.000000
    2      -13.116762   1.000000
    3      -12.599553   1.000000
    4      -12.237810   1.000000
    5      -11.946738   1.000000
    6      -11.836667   1.000000
    7      -11.636696   1.000000
    8      -11.304470   1.000000
    9      -11.259228   1.000000
   10      -11.118793   1.000000
   11      -11.095380   1.000000
   12      -11.060393   1.000000
   13      -10.900013   1.000000
   14      -10.710682   1.000000
   15      -10.508676   1.000000
   16      -10.496256   1.000000
   17      -10.467318   1.000000
   18       -9.825964   1.000000
   19       -9.706169   1.000000
   20       -9.661386   1.000000
   21       -9.482459   1.000000
   22       -9.471703   1.000000
   23       -9.406610   1.000000
   24       -9.336499   1.000000
   25       -9.026568   1.000000
   26       -8.822122   1.000000
   27       -8.464196   1.000000
   28       -8.301080   1.000000
   29       -8.186775   1.000000
   30       -8.147473   1.000000
   31       -8.091923   1.000000
   32       -7.864804   1.000000
   33       -7.658275   1.000000
   34       -7.550227   1.000000
   35       -7.412461   1.000000
   36       -7.259075   1.000000
   37       -7.145676   1.000000
   38       -7.050360   1.000000
   39       -7.007467   1.000000
   40       -6.780149   1.000000
   41       -6.738935   1.000000
   42       -6.652191   1.000000
   43       -6.592685   1.000000
   44       -6.550603   1.000000
   45       -6.530968   1.000000
   46       -6.434505   1.000000
   47       -6.178197   1.000000
   48       -6.063313   1.000000
   49       -5.930655   1.000000
   50       -5.890698   1.000000
   51       -5.799641   1.000000
   52       -5.747196   1.000000
   53       -5.706550   1.000000
   54       -5.586167   1.000000
   55       -5.525044   1.000000
   56       -5.440082   1.000000
   57       -5.355784   1.000000
   58       -5.349860   1.000000
   59       -5.232211   1.000000
   60       -5.152494   1.000000
   61       -5.124394   1.000000
   62       -5.098076   1.000000
   63       -4.989589   1.000000
   64       -4.790857   1.000000
   65       -4.736377   1.000000
   66       -4.661677   1.000000
   67       -4.588588   1.000000
   68       -4.517523   1.000000
   69       -4.497658   1.000000
   70       -4.373036   1.000000
   71       -4.300627   1.000000
   72       -4.287370   1.000000
   73       -4.203458   1.000000
   74       -4.168728   1.000000
   75       -4.121222   1.000000
   76       -4.086448   1.000000
   77       -4.069355   1.000000
   78       -4.061187   1.000000
   79       -4.023662   1.000000
   80       -3.971191   1.000000
   81       -3.946013   1.000000
   82       -3.915060   1.000000
   83       -3.797632   1.000000
   84       -3.757872   1.000000
   85       -3.712957   1.000000
   86       -3.646226   1.000000
   87       -3.585448   1.000000
   88       -3.557959   1.000000
   89       -3.541457   1.000000
   90       -3.507069   1.000000
   91       -3.458431   1.000000
   92       -3.409548   1.000000
   93       -3.325187   1.000000
   94       -3.141476   1.000000
   95       -3.037342   1.000000
   96       -2.961291   1.000000
   97       -2.889341   1.000000
   98       -2.865886   1.000000
   99       -2.771979   1.000000
  100       -2.717370   1.000000
  101       -2.693840   1.000000
  102       -2.605321   1.000000
  103       -2.448950   1.000000
  104       -2.337610   1.000000
  105       -2.312926   1.000000
  106       -2.225799   1.000000
  107       -2.195505   1.000000
  108       -2.088833   1.000000
  109       -2.025134   1.000000
  110       -1.998529   1.000000
  111       -1.957308   1.000000
  112       -1.898272   1.000000
  113       -1.833764   1.000000
  114       -1.785380   1.000000
  115       -1.752980   1.000000
  116       -1.688297   1.000000
  117       -1.646295   1.000000
  118       -1.562833   1.000000
  119       -1.354782   1.000000
  120       -1.326397   1.000000
  121       -1.276463   1.000000
  122       -1.038634   1.000000
  123       -0.977321   1.000000
  124       -0.921752   1.000000
  125       -0.881676   1.000000
  126       -0.822007   1.000000
  127       -0.700431   1.000000
  128       -0.630623   1.000000
  129       -0.454650   1.000000
  130       -0.364129   1.000000
  131       -0.219010   1.000000
  132       -0.123034   1.000000
  133       -0.006575   1.000000
  134        0.047649   1.000000
  135        0.084752   1.000000
  136        0.115890   1.000000
  137        0.200493   1.000007
  138        0.260460   1.000231
  139        0.321805   1.003698
  140        0.507266   0.787003
  141        0.526370   0.644463
  142        0.545017   0.489091
  143        0.579767   0.215854
  144        0.675704  -0.034239
  145        0.700727  -0.024455
  146        0.760513  -0.004479
  147        0.897172  -0.000003
  148        0.921562  -0.000001
  149        0.937046  -0.000000
  150        1.030796  -0.000000
  151        1.104512  -0.000000
  152        1.199457  -0.000000
  153        1.266925  -0.000000
  154        1.311493  -0.000000
  155        1.352469  -0.000000
  156        1.400378  -0.000000
  157        1.415490  -0.000000