 running on   72 total cores
 distrk:  each k-point on   72 cores,    1 groups
 distr:  one band on    9 cores,    8 groups
 using from now: INCAR     
 vasp.5.4.4.18Apr17-6-g9f103f2a35 (build Dec  7 2020 12:43:57) complex           
 POSCAR found type information on POSCAR  Mo V  B  H 
 POSCAR found :  4 types and      74 ions
 scaLAPACK will be used

 ----------------------------------------------------------------------------- 
|                                                                             |
|  ADVICE TO THIS USER RUNNING 'VASP/VAMP'   (HEAR YOUR MASTER'S VOICE ...):  |
|                                                                             |
|      You enforced a specific xc-type in the INCAR file,                     |
|      a different type was found on the POTCAR file                          |
|          I HOPE YOU KNOW, WHAT YOU ARE  DOING                               |
|                                                                             |
 ----------------------------------------------------------------------------- 

 LDA part: xc-table for Pade appr. of Perdew
 POSCAR, INCAR and KPOINTS ok, starting setup
 resort distribution
 resort distribution
 resort distribution
 resort distribution
 resort distribution
 resort distribution
 resort distribution
 resort distribution
 resort distribution
 resort distribution
 resort distribution
 resort distribution
 resort distribution
 resort distribution
 resort distribution
 resort distribution
 resort distribution
 resort distribution
 resort distribution
 resort distribution
 resort distribution
 resort distribution
 resort distribution
 resort distribution
 resort distribution
 resort distribution
 resort distribution
 resort distribution
 resort distribution
 resort distribution
 resort distribution
 resort distribution
 resort distribution
 resort distribution
 resort distribution
 resort distribution
 resort distribution
 resort distribution
 resort distribution
 resort distribution
 resort distribution
 resort distribution
 resort distribution
 resort distribution
 resort distribution
 resort distribution
 resort distribution
 resort distribution
 resort distribution
 resort distribution
 resort distribution
 resort distribution
 resort distribution
 resort distribution
 resort distribution
 resort distribution
 resort distribution
 resort distribution
 resort distribution
 resort distribution
 resort distribution
 resort distribution
 resort distribution
 resort distribution
 resort distribution
 resort distribution
 resort distribution
 resort distribution
 resort distribution
 resort distribution
 resort distribution
 resort distribution
 FFT: planning ...
 WAVECAR not read
 augmentation electrons   284.03098582721361     
 soft         electrons   0.0000000000000000     
 augmentation electrons   284.03098582721361     
 soft         electrons   0.0000000000000000     
 augmentation electrons   284.03098582721361     
 soft         electrons   0.0000000000000000     
 augmentation electrons   284.03098582721361     
 augmentation electrons   284.03098582721361     
 soft         electrons   0.0000000000000000     
 augmentation electrons   284.03098582721361     
 soft         electrons   0.0000000000000000     
 augmentation electrons   284.03098582721361     
 soft         electrons   0.0000000000000000     
 augmentation electrons   284.03098582721361     
 soft         electrons   0.0000000000000000     
 augmentation electrons   284.03098582721361     
 soft         electrons   0.0000000000000000     
 augmentation electrons   284.03098582721361     
 soft         electrons   0.0000000000000000     
 augmentation electrons   284.03098582721361     
 soft         electrons   0.0000000000000000     
 augmentation electrons   284.03098582721361     
 soft         electrons   0.0000000000000000     
 augmentation electrons   284.03098582721361     
 soft         electrons   0.0000000000000000     
 augmentation electrons   284.03098582721361     
 soft         electrons   0.0000000000000000     
 augmentation electrons   284.03098582721361     
 soft         electrons   0.0000000000000000     
 augmentation electrons   284.03098582721361     
 soft         electrons   0.0000000000000000     
 augmentation electrons   284.03098582721361     
 soft         electrons   0.0000000000000000     
 augmentation electrons   284.03098582721361     
 soft         electrons   0.0000000000000000     
 augmentation electrons   284.03098582721361     
 soft         electrons   0.0000000000000000     
 augmentation electrons   284.03098582721361     
 soft         electrons   0.0000000000000000     
 augmentation electrons   284.03098582721361     
 soft         electrons   0.0000000000000000     
 augmentation electrons   284.03098582721361     
 soft         electrons   0.0000000000000000     
 augmentation electrons   284.03098582721361     
 soft         electrons   0.0000000000000000     
 augmentation electrons   284.03098582721361     
 soft         electrons   0.0000000000000000     
 augmentation electrons   284.03098582721361     
 soft         electrons   0.0000000000000000     
 augmentation electrons   284.03098582721361     
 soft         electrons   0.0000000000000000     
 augmentation electrons   284.03098582721361     
 soft         electrons   0.0000000000000000     
 augmentation electrons   284.03098582721361     
 soft         electrons   0.0000000000000000     
 augmentation electrons   284.03098582721361     
 soft         electrons   0.0000000000000000     
 augmentation electrons   284.03098582721361     
 soft         electrons   0.0000000000000000     
 augmentation electrons   284.03098582721361     
 soft         electrons   0.0000000000000000     
 augmentation electrons   284.03098582721361     
 soft         electrons   0.0000000000000000     
 augmentation electrons   284.03098582721361     
 soft         electrons   0.0000000000000000     
 augmentation electrons   284.03098582721361     
 soft         electrons   0.0000000000000000     
 augmentation electrons   284.03098582721361     
 soft         electrons   0.0000000000000000     
 augmentation electrons   284.03098582721361     
 soft         electrons   0.0000000000000000     
 augmentation electrons   284.03098582721361     
 soft         electrons   0.0000000000000000     
 augmentation electrons   284.03098582721361     
 soft         electrons   0.0000000000000000     
 augmentation electrons   284.03098582721361     
 soft         electrons   0.0000000000000000     
 augmentation electrons   284.03098582721361     
 soft         electrons   0.0000000000000000     
 augmentation electrons   284.03098582721361     
 soft         electrons   0.0000000000000000     
 augmentation electrons   284.03098582721361     
 soft         electrons   0.0000000000000000     
 augmentation electrons   284.03098582721361     
 soft         electrons   0.0000000000000000     
 soft         electrons   0.0000000000000000     
 augmentation electrons   284.03098582721361     
 soft         electrons   0.0000000000000000     
 augmentation electrons   284.03098582721361     
 soft         electrons   0.0000000000000000     
 augmentation electrons   284.03098582721361     
 soft         electrons   0.0000000000000000     
 augmentation electrons   284.03098582721361     
 soft         electrons   0.0000000000000000     
 augmentation electrons   284.03098582721361     
 soft         electrons   0.0000000000000000     
 augmentation electrons   284.03098582721361     
 soft         electrons   0.0000000000000000     
 augmentation electrons   284.03098582721361     
 soft         electrons   0.0000000000000000     
 augmentation electrons   284.03098582721361     
 soft         electrons   0.0000000000000000     
 augmentation electrons   284.03098582721361     
 soft         electrons   0.0000000000000000     
 augmentation electrons   284.03098582721361     
 soft         electrons   0.0000000000000000     
 augmentation electrons   284.03098582721361     
 soft         electrons   0.0000000000000000     
 augmentation electrons   284.03098582721361     
 soft         electrons   0.0000000000000000     
 augmentation electrons   284.03098582721361     
 soft         electrons   0.0000000000000000     
 augmentation electrons   284.03098582721361     
 soft         electrons   0.0000000000000000     
 augmentation electrons   284.03098582721361     
 soft         electrons   0.0000000000000000     
 augmentation electrons   284.03098582721361     
 soft         electrons   0.0000000000000000     
 augmentation electrons   284.03098582721361     
 soft         electrons   0.0000000000000000     
 augmentation electrons   284.03098582721361     
 soft         electrons   0.0000000000000000     
 augmentation electrons   284.03098582721361     
 soft         electrons   0.0000000000000000     
 augmentation electrons   284.03098582721361     
 soft         electrons   0.0000000000000000     
 augmentation electrons   284.03098582721361     
 soft         electrons   0.0000000000000000     
 augmentation electrons   284.03098582721361     
 soft         electrons   0.0000000000000000     
 augmentation electrons   284.03098582721361     
 soft         electrons   0.0000000000000000     
 augmentation electrons   284.03098582721361     
 soft         electrons   0.0000000000000000     
 augmentation electrons   284.03098582721361     
 soft         electrons   0.0000000000000000     
 augmentation electrons   284.03098582721361     
 soft         electrons   0.0000000000000000     
 augmentation electrons   284.03098582721361     
 soft         electrons   0.0000000000000000     
 augmentation electrons   284.03098582721361     
 soft         electrons   0.0000000000000000     
 augmentation electrons   284.03098582721361     
 soft         electrons   0.0000000000000000     
 total        electrons   284.03098582721361     
 total        electrons   284.03098582721361     
 total        electrons   284.03098582721361     
 total        electrons   284.03098582721361     
 total        electrons   284.03098582721361     
 total        electrons   284.03098582721361     
 total        electrons   284.03098582721361     
 total        electrons   284.03098582721361     
 total        electrons   284.03098582721361     
 total        electrons   284.03098582721361     
 total        electrons   284.03098582721361     
 total        electrons   284.03098582721361     
 total        electrons   284.03098582721361     
 total        electrons   284.03098582721361     
 total        electrons   284.03098582721361     
 total        electrons   284.03098582721361     
 total        electrons   284.03098582721361     
 total        electrons   284.03098582721361     
 total        electrons   284.03098582721361     
 total        electrons   284.03098582721361     
 total        electrons   284.03098582721361     
 total        electrons   284.03098582721361     
 total        electrons   284.03098582721361     
 total        electrons   284.03098582721361     
 total        electrons   284.03098582721361     
 total        electrons   284.03098582721361     
 total        electrons   284.03098582721361     
 total        electrons   284.03098582721361     
 total        electrons   284.03098582721361     
 total        electrons   284.03098582721361     
 total        electrons   284.03098582721361     
 total        electrons   284.03098582721361     
 total        electrons   284.03098582721361     
 total        electrons   284.03098582721361     
 total        electrons   284.03098582721361     
 total        electrons   284.03098582721361     
 total        electrons   284.03098582721361     
 total        electrons   284.03098582721361     
 total        electrons   284.03098582721361     
 total        electrons   284.03098582721361     
 total        electrons   284.03098582721361     
 total        electrons   284.03098582721361     
 total        electrons   284.03098582721361     
 total        electrons   284.03098582721361     
 total        electrons   284.03098582721361     
 total        electrons   284.03098582721361     
 total        electrons   284.03098582721361     
 total        electrons   284.03098582721361     
 total        electrons   284.03098582721361     
 total        electrons   284.03098582721361     
 total        electrons   284.03098582721361     
 total        electrons   284.03098582721361     
 total        electrons   284.03098582721361     
 total        electrons   284.03098582721361     
 total        electrons   284.03098582721361     
 total        electrons   284.03098582721361     
 total        electrons   284.03098582721361     
 total        electrons   284.03098582721361     
 total        electrons   284.03098582721361     
 total        electrons   284.03098582721361     
 total        electrons   284.03098582721361     
 total        electrons   284.03098582721361     
 total        electrons   284.03098582721361     
 total        electrons   284.03098582721361     
 total        electrons   284.03098582721361     
 total        electrons   284.03098582721361     
 total        electrons   284.03098582721361     
 total        electrons   284.03098582721361     
 total        electrons   284.03098582721361     
 total        electrons   284.03098582721361     
 total        electrons   284.03098582721361     
 total        electrons   284.03098582721361     
 augmentation electrons   997.07737191289675     
 soft         electrons   0.0000000000000000     
 augmentation electrons   997.07737191289675     
 soft         electrons   0.0000000000000000     
 augmentation electrons   997.07737191289675     
 soft         electrons   0.0000000000000000     
 augmentation electrons   997.07737191289675     
 soft         electrons   0.0000000000000000     
 augmentation electrons   997.07737191289675     
 soft         electrons   0.0000000000000000     
 augmentation electrons   997.07737191289675     
 soft         electrons   0.0000000000000000     
 augmentation electrons   997.07737191289675     
 soft         electrons   0.0000000000000000     
 augmentation electrons   997.07737191289675     
 soft         electrons   0.0000000000000000     
 augmentation electrons   997.07737191289675     
 soft         electrons   0.0000000000000000     
 augmentation electrons   997.07737191289675     
 soft         electrons   0.0000000000000000     
 augmentation electrons   997.07737191289675     
 soft         electrons   0.0000000000000000     
 augmentation electrons   997.07737191289675     
 soft         electrons   0.0000000000000000     
 augmentation electrons   997.07737191289675     
 soft         electrons   0.0000000000000000     
 augmentation electrons   997.07737191289675     
 soft         electrons   0.0000000000000000     
 augmentation electrons   997.07737191289675     
 soft         electrons   0.0000000000000000     
 augmentation electrons   997.07737191289675     
 soft         electrons   0.0000000000000000     
 augmentation electrons   997.07737191289675     
 soft         electrons   0.0000000000000000     
 augmentation electrons   997.07737191289675     
 soft         electrons   0.0000000000000000     
 augmentation electrons   997.07737191289675     
 soft         electrons   0.0000000000000000     
 augmentation electrons   997.07737191289675     
 soft         electrons   0.0000000000000000     
 augmentation electrons   997.07737191289675     
 soft         electrons   0.0000000000000000     
 augmentation electrons   997.07737191289675     
 soft         electrons   0.0000000000000000     
 augmentation electrons   997.07737191289675     
 soft         electrons   0.0000000000000000     
 augmentation electrons   997.07737191289675     
 soft         electrons   0.0000000000000000     
 augmentation electrons   997.07737191289675     
 soft         electrons   0.0000000000000000     
 augmentation electrons   997.07737191289675     
 soft         electrons   0.0000000000000000     
 augmentation electrons   997.07737191289675     
 soft         electrons   0.0000000000000000     
 augmentation electrons   997.07737191289675     
 soft         electrons   0.0000000000000000     
 augmentation electrons   997.07737191289675     
 soft         electrons   0.0000000000000000     
 augmentation electrons   997.07737191289675     
 soft         electrons   0.0000000000000000     
 augmentation electrons   997.07737191289675     
 soft         electrons   0.0000000000000000     
 augmentation electrons   997.07737191289675     
 soft         electrons   0.0000000000000000     
 augmentation electrons   997.07737191289675     
 soft         electrons   0.0000000000000000     
 augmentation electrons   997.07737191289675     
 soft         electrons   0.0000000000000000     
 augmentation electrons   997.07737191289675     
 soft         electrons   0.0000000000000000     
 augmentation electrons   997.07737191289675     
 soft         electrons   0.0000000000000000     
 augmentation electrons   997.07737191289675     
 soft         electrons   0.0000000000000000     
 augmentation electrons   997.07737191289675     
 soft         electrons   0.0000000000000000     
 augmentation electrons   997.07737191289675     
 soft         electrons   0.0000000000000000     
 augmentation electrons   997.07737191289675     
 soft         electrons   0.0000000000000000     
 augmentation electrons   997.07737191289675     
 soft         electrons   0.0000000000000000     
 augmentation electrons   997.07737191289675     
 soft         electrons   0.0000000000000000     
 augmentation electrons   997.07737191289675     
 soft         electrons   0.0000000000000000     
 augmentation electrons   997.07737191289675     
 soft         electrons   0.0000000000000000     
 augmentation electrons   997.07737191289675     
 soft         electrons   0.0000000000000000     
 augmentation electrons   997.07737191289675     
 soft         electrons   0.0000000000000000     
 augmentation electrons   997.07737191289675     
 soft         electrons   0.0000000000000000     
 augmentation electrons   997.07737191289675     
 soft         electrons   0.0000000000000000     
 augmentation electrons   997.07737191289675     
 soft         electrons   0.0000000000000000     
 augmentation electrons   997.07737191289675     
 soft         electrons   0.0000000000000000     
 augmentation electrons   997.07737191289675     
 soft         electrons   0.0000000000000000     
 augmentation electrons   997.07737191289675     
 soft         electrons   0.0000000000000000     
 augmentation electrons   997.07737191289675     
 soft         electrons   0.0000000000000000     
 augmentation electrons   997.07737191289675     
 soft         electrons   0.0000000000000000     
 augmentation electrons   997.07737191289675     
 soft         electrons   0.0000000000000000     
 augmentation electrons   997.07737191289675     
 soft         electrons   0.0000000000000000     
 augmentation electrons   997.07737191289675     
 soft         electrons   0.0000000000000000     
 augmentation electrons   997.07737191289675     
 soft         electrons   0.0000000000000000     
 augmentation electrons   997.07737191289675     
 soft         electrons   0.0000000000000000     
 augmentation electrons   997.07737191289675     
 soft         electrons   0.0000000000000000     
 augmentation electrons   997.07737191289675     
 soft         electrons   0.0000000000000000     
 augmentation electrons   997.07737191289675     
 soft         electrons   0.0000000000000000     
 augmentation electrons   997.07737191289675     
 soft         electrons   0.0000000000000000     
 augmentation electrons   997.07737191289675     
 soft         electrons   0.0000000000000000     
 augmentation electrons   997.07737191289675     
 soft         electrons   0.0000000000000000     
 augmentation electrons   997.07737191289675     
 soft         electrons   0.0000000000000000     
 augmentation electrons   997.07737191289675     
 soft         electrons   0.0000000000000000     
 augmentation electrons   997.07737191289675     
 soft         electrons   0.0000000000000000     
 augmentation electrons   997.07737191289675     
 soft         electrons   0.0000000000000000     
 augmentation electrons   997.07737191289675     
 soft         electrons   0.0000000000000000     
 augmentation electrons   997.07737191289675     
 soft         electrons   0.0000000000000000     
 augmentation electrons   997.07737191289675     
 soft         electrons   0.0000000000000000     
 total        electrons   997.07737191289675     
 total        electrons   997.07737191289675     
 total        electrons   997.07737191289675     
 total        electrons   997.07737191289675     
 total        electrons   997.07737191289675     
 total        electrons   997.07737191289675     
 total        electrons   997.07737191289675     
 total        electrons   997.07737191289675     
 total        electrons   997.07737191289675     
 total        electrons   997.07737191289675     
 total        electrons   997.07737191289675     
 total        electrons   997.07737191289675     
 total        electrons   997.07737191289675     
 total        electrons   997.07737191289675     
 total        electrons   997.07737191289675     
 total        electrons   997.07737191289675     
 total        electrons   997.07737191289675     
 total        electrons   997.07737191289675     
 total        electrons   997.07737191289675     
 total        electrons   997.07737191289675     
 total        electrons   997.07737191289675     
 total        electrons   997.07737191289675     
 total        electrons   997.07737191289675     
 total        electrons   997.07737191289675     
 total        electrons   997.07737191289675     
 total        electrons   997.07737191289675     
 total        electrons   997.07737191289675     
 total        electrons   997.07737191289675     
 total        electrons   997.07737191289675     
 total        electrons   997.07737191289675     
 total        electrons   997.07737191289675     
 total        electrons   997.07737191289675     
 total        electrons   997.07737191289675     
 total        electrons   997.07737191289675     
 total        electrons   997.07737191289675     
 total        electrons   997.07737191289675     
 total        electrons   997.07737191289675     
 total        electrons   997.07737191289675     
 total        electrons   997.07737191289675     
 total        electrons   997.07737191289675     
 total        electrons   997.07737191289675     
 total        electrons   997.07737191289675     
 total        electrons   997.07737191289675     
 total        electrons   997.07737191289675     
 total        electrons   997.07737191289675     
 total        electrons   997.07737191289675     
 total        electrons   997.07737191289675     
 total        electrons   997.07737191289675     
 total        electrons   997.07737191289675     
 total        electrons   997.07737191289675     
 total        electrons   997.07737191289675     
 total        electrons   997.07737191289675     
 total        electrons   997.07737191289675     
 total        electrons   997.07737191289675     
 total        electrons   997.07737191289675     
 total        electrons   997.07737191289675     
 total        electrons   997.07737191289675     
 total        electrons   997.07737191289675     
 total        electrons   997.07737191289675     
 total        electrons   997.07737191289675     
 total        electrons   997.07737191289675     
 total        electrons   997.07737191289675     
 total        electrons   997.07737191289675     
 total        electrons   997.07737191289675     
 total        electrons   997.07737191289675     
 total        electrons   997.07737191289675     
 total        electrons   997.07737191289675     
 total        electrons   997.07737191289675     
 total        electrons   997.07737191289675     
 total        electrons   997.07737191289675     
 total        electrons   997.07737191289675     
 total        electrons   997.07737191289675     
 entering main loop
       N       E                     dE             d eps       ncg     rms          rms(c)
DAV:   1     0.248673282184E+04    0.24867E+04   -0.10341E+05  8464   0.127E+03
DAV:   2    -0.191366869104E+03   -0.26781E+04   -0.24902E+04  9744   0.313E+02
DAV:   3    -0.625865732134E+03   -0.43450E+03   -0.41263E+03 11904   0.146E+02
DAV:   4    -0.663201994248E+03   -0.37336E+02   -0.35600E+02 13736   0.465E+01
DAV:   5    -0.665655985979E+03   -0.24540E+01   -0.23536E+01 14400   0.111E+01    0.146E+02
RMM:   6    -0.614187934716E+03    0.51468E+02   -0.11350E+03 13399   0.880E+01    0.696E+01
RMM:   7    -0.672669393068E+03   -0.58481E+02   -0.35232E+02 10868   0.524E+01    0.536E+01
RMM:   8    -0.586778160226E+03    0.85891E+02   -0.95648E+01 10219   0.295E+01    0.323E+01
RMM:   9    -0.581967159431E+03    0.48110E+01   -0.44392E+01 12761   0.143E+01    0.288E+01
RMM:  10    -0.563615604015E+03    0.18352E+02   -0.19741E+01 10222   0.140E+01    0.178E+01
RMM:  11    -0.563849434838E+03   -0.23383E+00   -0.69608E+00 12097   0.538E+00    0.154E+01
RMM:  12    -0.563913540750E+03   -0.64106E-01   -0.12192E+00 13116   0.181E+00    0.146E+01
RMM:  13    -0.563620277085E+03    0.29326E+00   -0.93273E-01 10794   0.280E+00    0.129E+01
RMM:  14    -0.564096997212E+03   -0.47672E+00   -0.71137E+00  9609   0.870E+00    0.102E+01
RMM:  15    -0.563116049278E+03    0.98095E+00   -0.11913E+00 10190   0.377E+00    0.520E+00
RMM:  16    -0.562823317309E+03    0.29273E+00   -0.12682E+00 12961   0.206E+00    0.324E+00
RMM:  17    -0.562780402396E+03    0.42915E-01   -0.52100E-01 12820   0.145E+00    0.284E+00
RMM:  18    -0.562724477458E+03    0.55925E-01   -0.25485E-01 12483   0.115E+00    0.152E+00
RMM:  19    -0.562721654173E+03    0.28233E-02   -0.90028E-02 11490   0.705E-01    0.124E+00
RMM:  20    -0.562712622003E+03    0.90322E-02   -0.39673E-02 10921   0.547E-01    0.863E-01
RMM:  21    -0.562703161765E+03    0.94602E-02   -0.31521E-02 12681   0.330E-01    0.597E-01
RMM:  22    -0.562699067249E+03    0.40945E-02   -0.13203E-02 12516   0.240E-01    0.306E-01
RMM:  23    -0.562699201596E+03   -0.13435E-03   -0.57009E-03 11933   0.174E-01    0.270E-01
RMM:  24    -0.562698389314E+03    0.81228E-03   -0.24488E-03 12156   0.115E-01    0.144E-01
RMM:  25    -0.562697919874E+03    0.46944E-03   -0.22779E-03 11417   0.115E-01    0.139E-01
RMM:  26    -0.562697963540E+03   -0.43666E-04   -0.12529E-03 12468   0.609E-02    0.654E-02
RMM:  27    -0.562698369033E+03   -0.40549E-03   -0.66287E-04 12376   0.563E-02    0.661E-02
RMM:  28    -0.562699022809E+03   -0.65378E-03   -0.64262E-04 10464   0.553E-02    0.798E-02
RMM:  29    -0.562699237057E+03   -0.21425E-03   -0.44387E-04 10342   0.516E-02    0.421E-02
RMM:  30    -0.562699356227E+03   -0.11917E-03   -0.16737E-04 10917   0.341E-02    0.303E-02
RMM:  31    -0.562699409884E+03   -0.53657E-04   -0.14030E-04 10895   0.204E-02    0.171E-02
RMM:  32    -0.562699476382E+03   -0.66498E-04   -0.27552E-05  9178   0.810E-03    0.626E-03
RMM:  33    -0.562699658231E+03   -0.18185E-03   -0.13230E-05  8532   0.613E-03    0.775E-03
RMM:  34    -0.562699873964E+03   -0.21573E-03   -0.18988E-05  8640   0.698E-03    0.482E-03
RMM:  35    -0.562699927763E+03   -0.53799E-04   -0.54118E-06  7772   0.430E-03    0.441E-03
RMM:  36    -0.562700010110E+03   -0.82347E-04   -0.88670E-06  7788   0.372E-03    0.318E-03
RMM:  37    -0.562700040859E+03   -0.30749E-04   -0.32209E-06  7355   0.368E-03    0.313E-03
RMM:  38    -0.562700049055E+03   -0.81964E-05   -0.10221E-06  6504   0.271E-03    0.188E-03
RMM:  39    -0.562700058035E+03   -0.89801E-05   -0.91374E-07  6336   0.207E-03    0.155E-03
RMM:  40    -0.562700062425E+03   -0.43893E-05   -0.74751E-07  6196   0.192E-03    0.128E-03
RMM:  41    -0.562700063415E+03   -0.99014E-06   -0.35401E-07  5489   0.168E-03
   1 F= -.56270006E+03 E0= -.56270151E+03  d E =0.434502E-02
 augmentation electrons   31.464480821288035     
 soft         electrons   252.62828889117336     
 augmentation electrons   31.464480821288035     
 soft         electrons   252.62828889117336     
 augmentation electrons   31.464480821288035     
 soft         electrons   252.62828889117336     
 augmentation electrons   31.464480821288035     
 soft         electrons   252.62828889117336     
 augmentation electrons   31.464480821288035     
 soft         electrons   252.62828889117336     
 augmentation electrons   31.464480821288035     
 soft         electrons   252.62828889117336     
 augmentation electrons   31.464480821288035     
 soft         electrons   252.62828889117336     
 augmentation electrons   31.464480821288035     
 soft         electrons   252.62828889117336     
 augmentation electrons   31.464480821288035     
 soft         electrons   252.62828889117336     
 augmentation electrons   31.464480821288035     
 soft         electrons   252.62828889117336     
 augmentation electrons   31.464480821288035     
 soft         electrons   252.62828889117336     
 augmentation electrons   31.464480821288035     
 soft         electrons   252.62828889117336     
 augmentation electrons   31.464480821288035     
 soft         electrons   252.62828889117336     
 augmentation electrons   31.464480821288035     
 soft         electrons   252.62828889117336     
 augmentation electrons   31.464480821288035     
 soft         electrons   252.62828889117336     
 augmentation electrons   31.464480821288035     
 soft         electrons   252.62828889117336     
 augmentation electrons   31.464480821288035     
 soft         electrons   252.62828889117336     
 augmentation electrons   31.464480821288035     
 soft         electrons   252.62828889117336     
 augmentation electrons   31.464480821288035     
 soft         electrons   252.62828889117336     
 augmentation electrons   31.464480821288035     
 soft         electrons   252.62828889117336     
 augmentation electrons   31.464480821288035     
 soft         electrons   252.62828889117336     
 augmentation electrons   31.464480821288035     
 soft         electrons   252.62828889117336     
 augmentation electrons   31.464480821288035     
 soft         electrons   252.62828889117336     
 augmentation electrons   31.464480821288035     
 soft         electrons   252.62828889117336     
 augmentation electrons   31.464480821288035     
 soft         electrons   252.62828889117336     
 augmentation electrons   31.464480821288035     
 soft         electrons   252.62828889117336     
 augmentation electrons   31.464480821288035     
 soft         electrons   252.62828889117336     
 augmentation electrons   31.464480821288035     
 soft         electrons   252.62828889117336     
 augmentation electrons   31.464480821288035     
 soft         electrons   252.62828889117336     
 augmentation electrons   31.464480821288035     
 soft         electrons   252.62828889117336     
 augmentation electrons   31.464480821288035     
 soft         electrons   252.62828889117336     
 augmentation electrons   31.464480821288035     
 soft         electrons   252.62828889117336     
 augmentation electrons   31.464480821288035     
 soft         electrons   252.62828889117336     
 augmentation electrons   31.464480821288035     
 soft         electrons   252.62828889117336     
 augmentation electrons   31.464480821288035     
 soft         electrons   252.62828889117336     
 augmentation electrons   31.464480821288035     
 soft         electrons   252.62828889117336     
 augmentation electrons   31.464480821288035     
 soft         electrons   252.62828889117336     
 augmentation electrons   31.464480821288035     
 soft         electrons   252.62828889117336     
 augmentation electrons   31.464480821288035     
 soft         electrons   252.62828889117336     
 augmentation electrons   31.464480821288035     
 soft         electrons   252.62828889117336     
 augmentation electrons   31.464480821288035     
 soft         electrons   252.62828889117336     
 augmentation electrons   31.464480821288035     
 soft         electrons   252.62828889117336     
 augmentation electrons   31.464480821288035     
 soft         electrons   252.62828889117336     
 augmentation electrons   31.464480821288035     
 soft         electrons   252.62828889117336     
 augmentation electrons   31.464480821288035     
 soft         electrons   252.62828889117336     
 augmentation electrons   31.464480821288035     
 soft         electrons   252.62828889117336     
 augmentation electrons   31.464480821288035     
 soft         electrons   252.62828889117336     
 augmentation electrons   31.464480821288035     
 soft         electrons   252.62828889117336     
 augmentation electrons   31.464480821288035     
 soft         electrons   252.62828889117336     
 augmentation electrons   31.464480821288035     
 soft         electrons   252.62828889117336     
 augmentation electrons   31.464480821288035     
 soft         electrons   252.62828889117336     
 augmentation electrons   31.464480821288035     
 soft         electrons   252.62828889117336     
 augmentation electrons   31.464480821288035     
 soft         electrons   252.62828889117336     
 augmentation electrons   31.464480821288035     
 soft         electrons   252.62828889117336     
 augmentation electrons   31.464480821288035     
 soft         electrons   252.62828889117336     
 augmentation electrons   31.464480821288035     
 soft         electrons   252.62828889117336     
 augmentation electrons   31.464480821288035     
 soft         electrons   252.62828889117336     
 augmentation electrons   31.464480821288035     
 soft         electrons   252.62828889117336     
 augmentation electrons   31.464480821288035     
 soft         electrons   252.62828889117336     
 augmentation electrons   31.464480821288035     
 soft         electrons   252.62828889117336     
 augmentation electrons   31.464480821288035     
 soft         electrons   252.62828889117336     
 augmentation electrons   31.464480821288035     
 soft         electrons   252.62828889117336     
 augmentation electrons   31.464480821288035     
 soft         electrons   252.62828889117336     
 augmentation electrons   31.464480821288035     
 soft         electrons   252.62828889117336     
 augmentation electrons   31.464480821288035     
 soft         electrons   252.62828889117336     
 augmentation electrons   31.464480821288035     
 soft         electrons   252.62828889117336     
 augmentation electrons   31.464480821288035     
 soft         electrons   252.62828889117336     
 augmentation electrons   31.464480821288035     
 soft         electrons   252.62828889117336     
 augmentation electrons   31.464480821288035     
 soft         electrons   252.62828889117336     
 augmentation electrons   31.464480821288035     
 soft         electrons   252.62828889117336     
 augmentation electrons   31.464480821288035     
 soft         electrons   252.62828889117336     
 augmentation electrons   31.464480821288035     
 soft         electrons   252.62828889117336     
 total        electrons   284.09276971246140     
 total        electrons   284.09276971246140     
 total        electrons   284.09276971246140     
 total        electrons   284.09276971246140     
 total        electrons   284.09276971246140     
 total        electrons   284.09276971246140     
 total        electrons   284.09276971246140     
 total        electrons   284.09276971246140     
 total        electrons   284.09276971246140     
 total        electrons   284.09276971246140     
 total        electrons   284.09276971246140     
 total        electrons   284.09276971246140     
 total        electrons   284.09276971246140     
 total        electrons   284.09276971246140     
 total        electrons   284.09276971246140     
 total        electrons   284.09276971246140     
 total        electrons   284.09276971246140     
 total        electrons   284.09276971246140     
 total        electrons   284.09276971246140     
 total        electrons   284.09276971246140     
 total        electrons   284.09276971246140     
 total        electrons   284.09276971246140     
 total        electrons   284.09276971246140     
 total        electrons   284.09276971246140     
 total        electrons   284.09276971246140     
 total        electrons   284.09276971246140     
 total        electrons   284.09276971246140     
 total        electrons   284.09276971246140     
 total        electrons   284.09276971246140     
 total        electrons   284.09276971246140     
 total        electrons   284.09276971246140     
 total        electrons   284.09276971246140     
 total        electrons   284.09276971246140     
 total        electrons   284.09276971246140     
 total        electrons   284.09276971246140     
 total        electrons   284.09276971246140     
 total        electrons   284.09276971246140     
 total        electrons   284.09276971246140     
 total        electrons   284.09276971246140     
 total        electrons   284.09276971246140     
 total        electrons   284.09276971246140     
 total        electrons   284.09276971246140     
 total        electrons   284.09276971246140     
 total        electrons   284.09276971246140     
 total        electrons   284.09276971246140     
 total        electrons   284.09276971246140     
 total        electrons   284.09276971246140     
 total        electrons   284.09276971246140     
 total        electrons   284.09276971246140     
 total        electrons   284.09276971246140     
 total        electrons   284.09276971246140     
 total        electrons   284.09276971246140     
 total        electrons   284.09276971246140     
 total        electrons   284.09276971246140     
 total        electrons   284.09276971246140     
 total        electrons   284.09276971246140     
 total        electrons   284.09276971246140     
 total        electrons   284.09276971246140     
 total        electrons   284.09276971246140     
 total        electrons   284.09276971246140     
 total        electrons   284.09276971246140     
 total        electrons   284.09276971246140     
 total        electrons   284.09276971246140     
 total        electrons   284.09276971246140     
 total        electrons   284.09276971246140     
 total        electrons   284.09276971246140     
 total        electrons   284.09276971246140     
 total        electrons   284.09276971246140     
 total        electrons   284.09276971246140     
 total        electrons   284.09276971246140     
 total        electrons   284.09276971246140     
 total        electrons   284.09276971246140     
Note: The following floating-point exceptions are signalling: IEEE_OVERFLOW_FLAG
Note: The following floating-point exceptions are signalling: IEEE_OVERFLOW_FLAG
Note: The following floating-point exceptions are signalling: IEEE_OVERFLOW_FLAG
Note: The following floating-point exceptions are signalling: IEEE_OVERFLOW_FLAG
Note: The following floating-point exceptions are signalling: IEEE_OVERFLOW_FLAG
Note: The following floating-point exceptions are signalling: IEEE_OVERFLOW_FLAG
Note: The following floating-point exceptions are signalling: IEEE_OVERFLOW_FLAG
Note: The following floating-point exceptions are signalling: IEEE_OVERFLOW_FLAG
Note: The following floating-point exceptions are signalling: IEEE_OVERFLOW_FLAG
Note: The following floating-point exceptions are signalling: IEEE_OVERFLOW_FLAG
Note: The following floating-point exceptions are signalling: IEEE_OVERFLOW_FLAG
Note: The following floating-point exceptions are signalling: IEEE_OVERFLOW_FLAG
Note: The following floating-point exceptions are signalling: IEEE_OVERFLOW_FLAG
Note: The following floating-point exceptions are signalling: IEEE_OVERFLOW_FLAG
Note: The following floating-point exceptions are signalling: IEEE_OVERFLOW_FLAG
Note: The following floating-point exceptions are signalling: IEEE_OVERFLOW_FLAG
Note: The following floating-point exceptions are signalling: IEEE_OVERFLOW_FLAG
Note: The following floating-point exceptions are signalling: IEEE_OVERFLOW_FLAG
Note: The following floating-point exceptions are signalling: IEEE_OVERFLOW_FLAG
Note: The following floating-point exceptions are signalling: IEEE_OVERFLOW_FLAG
Note: The following floating-point exceptions are signalling: IEEE_OVERFLOW_FLAG
Note: The following floating-point exceptions are signalling: IEEE_INVALID_FLAG IEEE_OVERFLOW_FLAG
Note: The following floating-point exceptions are signalling: IEEE_OVERFLOW_FLAG
Note: The following floating-point exceptions are signalling: IEEE_OVERFLOW_FLAG
Note: The following floating-point exceptions are signalling: IEEE_OVERFLOW_FLAG
Note: The following floating-point exceptions are signalling: IEEE_OVERFLOW_FLAG
Note: The following floating-point exceptions are signalling: IEEE_OVERFLOW_FLAG
Note: The following floating-point exceptions are signalling: IEEE_OVERFLOW_FLAG
Note: The following floating-point exceptions are signalling: IEEE_OVERFLOW_FLAG
Note: The following floating-point exceptions are signalling: IEEE_OVERFLOW_FLAG
Note: The following floating-point exceptions are signalling: IEEE_OVERFLOW_FLAG
Note: The following floating-point exceptions are signalling: IEEE_OVERFLOW_FLAG
Note: The following floating-point exceptions are signalling: IEEE_OVERFLOW_FLAG
Note: The following floating-point exceptions are signalling: IEEE_OVERFLOW_FLAG
Note: The following floating-point exceptions are signalling: IEEE_OVERFLOW_FLAG
Note: The following floating-point exceptions are signalling: IEEE_OVERFLOW_FLAG
Note: The following floating-point exceptions are signalling: IEEE_OVERFLOW_FLAG
Note: The following floating-point exceptions are signalling: IEEE_OVERFLOW_FLAG
Note: The following floating-point exceptions are signalling: IEEE_OVERFLOW_FLAG
Note: The following floating-point exceptions are signalling: IEEE_OVERFLOW_FLAG
Note: The following floating-point exceptions are signalling: IEEE_OVERFLOW_FLAG
Note: The following floating-point exceptions are signalling: IEEE_OVERFLOW_FLAG
Note: The following floating-point exceptions are signalling: IEEE_OVERFLOW_FLAG
Note: The following floating-point exceptions are signalling: IEEE_OVERFLOW_FLAG
Note: The following floating-point exceptions are signalling: IEEE_OVERFLOW_FLAG
Note: The following floating-point exceptions are signalling: IEEE_OVERFLOW_FLAG
Note: The following floating-point exceptions are signalling: IEEE_OVERFLOW_FLAG
Note: The following floating-point exceptions are signalling: IEEE_OVERFLOW_FLAG
Note: The following floating-point exceptions are signalling: IEEE_OVERFLOW_FLAG
Note: The following floating-point exceptions are signalling: IEEE_OVERFLOW_FLAG
Note: The following floating-point exceptions are signalling: IEEE_OVERFLOW_FLAG
Note: The following floating-point exceptions are signalling: IEEE_OVERFLOW_FLAG
Note: The following floating-point exceptions are signalling: IEEE_OVERFLOW_FLAG
Note: The following floating-point exceptions are signalling: IEEE_OVERFLOW_FLAG
Note: The following floating-point exceptions are signalling: IEEE_OVERFLOW_FLAG
Note: The following floating-point exceptions are signalling: IEEE_OVERFLOW_FLAG
Note: The following floating-point exceptions are signalling: IEEE_OVERFLOW_FLAG
Note: The following floating-point exceptions are signalling: IEEE_OVERFLOW_FLAG
Note: The following floating-point exceptions are signalling: IEEE_OVERFLOW_FLAG
Note: The following floating-point exceptions are signalling: IEEE_OVERFLOW_FLAG
Note: The following floating-point exceptions are signalling: IEEE_OVERFLOW_FLAG
Note: The following floating-point exceptions are signalling: IEEE_OVERFLOW_FLAG
Note: The following floating-point exceptions are signalling: IEEE_OVERFLOW_FLAG
Note: The following floating-point exceptions are signalling: IEEE_OVERFLOW_FLAG
Note: The following floating-point exceptions are signalling: IEEE_OVERFLOW_FLAG
Note: The following floating-point exceptions are signalling: IEEE_OVERFLOW_FLAG
Note: The following floating-point exceptions are signalling: IEEE_OVERFLOW_FLAG
Note: The following floating-point exceptions are signalling: IEEE_OVERFLOW_FLAG
Note: The following floating-point exceptions are signalling: IEEE_OVERFLOW_FLAG
Note: The following floating-point exceptions are signalling: IEEE_OVERFLOW_FLAG
Note: The following floating-point exceptions are signalling: IEEE_OVERFLOW_FLAG
Note: The following floating-point exceptions are signalling: IEEE_OVERFLOW_FLAG
