   74   74    1    1
  0.2087222E+02  0.1036705E-08  0.2428040E-08  0.6136055E-09  0.5000000E-15
   1.0000000000000000E-004
  CAR 
 Name                                    
    278     23    180

  0.3742002E-15  0.1262379E-14  0.3742002E-15  0.2222222E-01
    1      -13.956988   1.000000
    2      -12.828596   1.000000
    3      -12.760504   1.000000
    4      -12.725273   1.000000
    5      -11.832060   1.000000
    6      -11.753966   1.000000
    7      -11.590334   1.000000
    8      -11.413734   1.000000
    9      -11.397666   1.000000
   10      -11.243105   1.000000
   11      -11.233234   1.000000
   12      -10.928536   1.000000
   13      -10.898819   1.000000
   14      -10.626905   1.000000
   15      -10.469025   1.000000
   16      -10.414675   1.000000
   17      -10.147565   1.000000
   18      -10.096308   1.000000
   19       -9.991391   1.000000
   20       -9.724569   1.000000
   21       -9.529840   1.000000
   22       -9.452768   1.000000
   23       -9.431162   1.000000
   24       -9.282917   1.000000
   25       -8.954208   1.000000
   26       -8.738291   1.000000
   27       -8.589394   1.000000
   28       -8.515779   1.000000
   29       -8.355619   1.000000
   30       -8.078440   1.000000
   31       -8.050606   1.000000
   32       -7.772449   1.000000
   33       -7.683572   1.000000
   34       -7.618797   1.000000
   35       -7.220391   1.000000
   36       -7.127244   1.000000
   37       -6.925931   1.000000
   38       -6.803726   1.000000
   39       -6.686662   1.000000
   40       -6.630581   1.000000
   41       -6.604275   1.000000
   42       -6.584568   1.000000
   43       -6.496765   1.000000
   44       -6.361485   1.000000
   45       -6.336444   1.000000
   46       -6.191864   1.000000
   47       -6.061281   1.000000
   48       -6.059752   1.000000
   49       -6.051634   1.000000
   50       -5.983084   1.000000
   51       -5.716669   1.000000
   52       -5.679645   1.000000
   53       -5.621270   1.000000
   54       -5.552486   1.000000
   55       -5.530969   1.000000
   56       -5.522417   1.000000
   57       -5.399774   1.000000
   58       -5.283176   1.000000
   59       -5.260462   1.000000
   60       -5.124872   1.000000
   61       -5.089142   1.000000
   62       -4.963977   1.000000
   63       -4.627547   1.000000
   64       -4.601352   1.000000
   65       -4.456626   1.000000
   66       -4.453545   1.000000
   67       -4.444759   1.000000
   68       -4.350157   1.000000
   69       -4.271389   1.000000
   70       -4.048013   1.000000
   71       -3.950870   1.000000
   72       -3.934417   1.000000
   73       -3.880613   1.000000
   74       -3.876505   1.000000
   75       -3.848990   1.000000
   76       -3.838137   1.000000
   77       -3.802505   1.000000
   78       -3.766023   1.000000
   79       -3.717853   1.000000
   80       -3.599385   1.000000
   81       -3.501359   1.000000
   82       -3.482460   1.000000
   83       -3.475733   1.000000
   84       -3.438692   1.000000
   85       -3.405083   1.000000
   86       -3.402171   1.000000
   87       -3.395500   1.000000
   88       -3.394749   1.000000
   89       -3.356423   1.000000
   90       -3.304054   1.000000
   91       -3.280751   1.000000
   92       -3.085618   1.000000
   93       -2.986452   1.000000
   94       -2.830854   1.000000
   95       -2.823081   1.000000
   96       -2.810916   1.000000
   97       -2.721427   1.000000
   98       -2.618848   1.000000
   99       -2.486552   1.000000
  100       -2.329168   1.000000
  101       -2.218251   1.000000
  102       -2.206556   1.000000
  103       -2.204214   1.000000
  104       -2.146521   1.000000
  105       -2.118404   1.000000
  106       -1.948877   1.000000
  107       -1.920142   1.000000
  108       -1.912731   1.000000
  109       -1.906128   1.000000
  110       -1.886774   1.000000
  111       -1.810225   1.000000
  112       -1.744386   1.000000
  113       -1.683817   1.000000
  114       -1.625455   1.000000
  115       -1.547879   1.000000
  116       -1.485477   1.000000
  117       -1.476007   1.000000
  118       -1.464444   1.000000
  119       -1.340331   1.000000
  120       -1.310735   1.000000
  121       -1.272515   1.000000
  122       -0.872686   1.000000
  123       -0.784073   1.000000
  124       -0.718552   1.000000
  125       -0.626754   1.000000
  126       -0.564292   1.000000
  127       -0.396492   1.000000
  128       -0.360062   1.000000
  129       -0.338784   1.000000
  130       -0.219574   1.000000
  131        0.038621   1.000000
  132        0.052453   1.000000
  133        0.101709   1.000002
  134        0.362866   1.024878
  135        0.388701   0.972835
  136        0.404555   0.911173
  137        0.451658   0.592207
  138        0.469621   0.440971
  139        0.522718   0.079579
  140        0.583658  -0.035425
  141        0.584645  -0.035455
  142        0.658742  -0.009045
  143        0.715834  -0.001002
  144        0.721150  -0.000785
  145        0.725804  -0.000630
  146        0.728660  -0.000549
  147        0.771427  -0.000057
  148        0.788156  -0.000021
  149        0.949614  -0.000000
  150        0.977849  -0.000000
  151        1.125831  -0.000000
  152        1.188054  -0.000000
  153        1.218592  -0.000000
  154        1.279200  -0.000000
  155        1.312576  -0.000000
  156        1.341306  -0.000000
  157        1.354926  -0.000000
  158        1.450750  -0.000000
  159        1.460548  -0.000000
  160        1.496129  -0.000000
  161        1.498885  -0.000000
  162        1.513650  -0.000000
  163        1.527959  -0.000000
  164        1.533029  -0.000000
  165        1.636566  -0.000000
  166        1.678902  -0.000000
  167        1.747869  -0.000000
  168        1.779695  -0.000000
  169        1.798740  -0.000000
  170        1.856612  -0.000000
  171        1.875923  -0.000000
  172        1.909043  -0.000000
  173        2.371592  -0.000000
  174        2.401007  -0.000000
  175        2.454658  -0.000000
  176        2.527994  -0.000000
  177        2.702571  -0.000000
  178        2.797035  -0.000000
  179        3.099530  -0.000000
  180        3.809006   0.000000

  0.2000000E+00  0.1262379E-14  0.3742002E-15  0.4444444E-01
    1      -13.907810   1.000000
    2      -13.189993   1.000000
    3      -12.723708   1.000000
    4      -12.283498   1.000000
    5      -12.046910   1.000000
    6      -11.815764   1.000000
    7      -11.561810   1.000000
    8      -11.353248   1.000000
    9      -11.240808   1.000000
   10      -11.200860   1.000000
   11      -11.090763   1.000000
   12      -11.019112   1.000000
   13      -10.782508   1.000000
   14      -10.624893   1.000000
   15      -10.620725   1.000000
   16      -10.507245   1.000000
   17      -10.463674   1.000000
   18      -10.196770   1.000000
   19      -10.031192   1.000000
   20       -9.580805   1.000000
   21       -9.471085   1.000000
   22       -9.418251   1.000000
   23       -9.341998   1.000000
   24       -9.253607   1.000000
   25       -9.120176   1.000000
   26       -8.802177   1.000000
   27       -8.413025   1.000000
   28       -8.399976   1.000000
   29       -8.086722   1.000000
   30       -8.074619   1.000000
   31       -8.040520   1.000000
   32       -7.966891   1.000000
   33       -7.638689   1.000000
   34       -7.471377   1.000000
   35       -7.372044   1.000000
   36       -7.200954   1.000000
   37       -7.128907   1.000000
   38       -6.880597   1.000000
   39       -6.788754   1.000000
   40       -6.617672   1.000000
   41       -6.578110   1.000000
   42       -6.534497   1.000000
   43       -6.515217   1.000000
   44       -6.365956   1.000000
   45       -6.311393   1.000000
   46       -6.301403   1.000000
   47       -6.084473   1.000000
   48       -6.024494   1.000000
   49       -5.957530   1.000000
   50       -5.931849   1.000000
   51       -5.897170   1.000000
   52       -5.690327   1.000000
   53       -5.594119   1.000000
   54       -5.519786   1.000000
   55       -5.392219   1.000000
   56       -5.268380   1.000000
   57       -5.247224   1.000000
   58       -5.187012   1.000000
   59       -5.156862   1.000000
   60       -5.129826   1.000000
   61       -5.110709   1.000000
   62       -5.097892   1.000000
   63       -4.817284   1.000000
   64       -4.716333   1.000000
   65       -4.527460   1.000000
   66       -4.478321   1.000000
   67       -4.398509   1.000000
   68       -4.397852   1.000000
   69       -4.176136   1.000000
   70       -4.033549   1.000000
   71       -4.015858   1.000000
   72       -3.948892   1.000000
   73       -3.940909   1.000000
   74       -3.927573   1.000000
   75       -3.849250   1.000000
   76       -3.776664   1.000000
   77       -3.772478   1.000000
   78       -3.713714   1.000000
   79       -3.677387   1.000000
   80       -3.572801   1.000000
   81       -3.531166   1.000000
   82       -3.516548   1.000000
   83       -3.509571   1.000000
   84       -3.473223   1.000000
   85       -3.456185   1.000000
   86       -3.399418   1.000000
   87       -3.375294   1.000000
   88       -3.367635   1.000000
   89       -3.339981   1.000000
   90       -3.324986   1.000000
   91       -3.195069   1.000000
   92       -3.161640   1.000000
   93       -2.955031   1.000000
   94       -2.876755   1.000000
   95       -2.852438   1.000000
   96       -2.779554   1.000000
   97       -2.703019   1.000000
   98       -2.594980   1.000000
   99       -2.525668   1.000000
  100       -2.386889   1.000000
  101       -2.296389   1.000000
  102       -2.256241   1.000000
  103       -2.135915   1.000000
  104       -2.115035   1.000000
  105       -2.100112   1.000000
  106       -1.982712   1.000000
  107       -1.899133   1.000000
  108       -1.880259   1.000000
  109       -1.843699   1.000000
  110       -1.840535   1.000000
  111       -1.773970   1.000000
  112       -1.763091   1.000000
  113       -1.656060   1.000000
  114       -1.605899   1.000000
  115       -1.507521   1.000000
  116       -1.410312   1.000000
  117       -1.404695   1.000000
  118       -1.355254   1.000000
  119       -1.324522   1.000000
  120       -1.261927   1.000000
  121       -1.195261   1.000000
  122       -0.916838   1.000000
  123       -0.852890   1.000000
  124       -0.752339   1.000000
  125       -0.699143   1.000000
  126       -0.594443   1.000000
  127       -0.494431   1.000000
  128       -0.345759   1.000000
  129       -0.338396   1.000000
  130       -0.301184   1.000000
  131       -0.142259   1.000000
  132       -0.091936   1.000000
  133        0.014839   1.000000
  134        0.228092   1.002247
  135        0.251338   1.005458
  136        0.357299   1.029809
  137        0.375033   1.007006
  138        0.439684   0.688609
  139        0.541400   0.013157
  140        0.547310  -0.001077
  141        0.676339  -0.005007
  142        0.719644  -0.000842
  143        0.755509  -0.000138
  144        0.758298  -0.000119
  145        0.805073  -0.000007
  146        0.814336  -0.000004
  147        0.856708  -0.000000
  148        0.873256  -0.000000
  149        0.926813  -0.000000
  150        0.969329  -0.000000
  151        1.217912  -0.000000
  152        1.240469  -0.000000
  153        1.261569  -0.000000
  154        1.288903  -0.000000
  155        1.341888  -0.000000
  156        1.373397  -0.000000
  157        1.444535  -0.000000
  158        1.447923  -0.000000
  159        1.465792  -0.000000
  160        1.485548  -0.000000
  161        1.546582  -0.000000
  162        1.550513  -0.000000
  163        1.564117  -0.000000
  164        1.584617  -0.000000
  165        1.629969  -0.000000
  166        1.686426  -0.000000
  167        1.723494  -0.000000
  168        1.738744  -0.000000
  169        1.757163  -0.000000
  170        1.797495  -0.000000
  171        1.836867  -0.000000
  172        1.912122  -0.000000
  173        1.951219  -0.000000
  174        2.213212  -0.000000
  175        2.340948  -0.000000
  176        2.378206  -0.000000
  177        2.494903  -0.000000
  178        2.550809  -0.000000
  179        3.161124  -0.000000
  180        3.697164   0.000000

  0.4000000E+00  0.1262379E-14  0.3742002E-15  0.4444444E-01
    1      -13.761710   1.000000
    2      -13.518877   1.000000
    3      -12.598942   1.000000
    4      -12.339713   1.000000
    5      -11.766688   1.000000
    6      -11.732965   1.000000
    7      -11.681220   1.000000
    8      -11.267747   1.000000
    9      -11.203247   1.000000
   10      -11.124885   1.000000
   11      -11.090268   1.000000
   12      -10.958962   1.000000
   13      -10.812438   1.000000
   14      -10.727452   1.000000
   15      -10.681122   1.000000
   16      -10.609206   1.000000
   17      -10.588508   1.000000
   18      -10.299612   1.000000
   19      -10.139356   1.000000
   20       -9.780945   1.000000
   21       -9.499948   1.000000
   22       -9.381882   1.000000
   23       -9.234007   1.000000
   24       -9.167200   1.000000
   25       -9.034375   1.000000
   26       -8.738395   1.000000
   27       -8.354960   1.000000
   28       -8.207467   1.000000
   29       -8.147930   1.000000
   30       -7.948645   1.000000
   31       -7.753524   1.000000
   32       -7.680219   1.000000
   33       -7.673533   1.000000
   34       -7.632697   1.000000
   35       -7.505930   1.000000
   36       -7.383014   1.000000
   37       -7.221594   1.000000
   38       -7.220214   1.000000
   39       -6.986376   1.000000
   40       -6.819479   1.000000
   41       -6.701125   1.000000
   42       -6.435712   1.000000
   43       -6.386917   1.000000
   44       -6.340398   1.000000
   45       -6.276705   1.000000
   46       -6.220056   1.000000
   47       -6.069752   1.000000
   48       -5.969350   1.000000
   49       -5.881360   1.000000
   50       -5.775189   1.000000
   51       -5.751139   1.000000
   52       -5.715637   1.000000
   53       -5.620218   1.000000
   54       -5.586105   1.000000
   55       -5.532248   1.000000
   56       -5.353416   1.000000
   57       -5.264127   1.000000
   58       -5.125260   1.000000
   59       -5.060679   1.000000
   60       -5.004787   1.000000
   61       -4.967605   1.000000
   62       -4.880729   1.000000
   63       -4.849200   1.000000
   64       -4.704568   1.000000
   65       -4.594149   1.000000
   66       -4.546116   1.000000
   67       -4.464801   1.000000
   68       -4.293785   1.000000
   69       -4.253901   1.000000
   70       -4.164266   1.000000
   71       -4.123850   1.000000
   72       -4.032642   1.000000
   73       -3.956006   1.000000
   74       -3.929255   1.000000
   75       -3.892730   1.000000
   76       -3.872249   1.000000
   77       -3.729846   1.000000
   78       -3.685451   1.000000
   79       -3.668901   1.000000
   80       -3.646714   1.000000
   81       -3.594055   1.000000
   82       -3.588052   1.000000
   83       -3.543051   1.000000
   84       -3.489050   1.000000
   85       -3.402437   1.000000
   86       -3.355668   1.000000
   87       -3.342137   1.000000
   88       -3.290504   1.000000
   89       -3.219454   1.000000
   90       -3.174108   1.000000
   91       -3.132579   1.000000
   92       -3.105631   1.000000
   93       -3.022961   1.000000
   94       -2.944460   1.000000
   95       -2.939143   1.000000
   96       -2.839119   1.000000
   97       -2.724177   1.000000
   98       -2.640554   1.000000
   99       -2.549748   1.000000
  100       -2.419593   1.000000
  101       -2.287482   1.000000
  102       -2.264644   1.000000
  103       -2.143113   1.000000
  104       -2.088481   1.000000
  105       -2.056048   1.000000
  106       -2.035557   1.000000
  107       -1.951489   1.000000
  108       -1.897834   1.000000
  109       -1.869332   1.000000
  110       -1.851379   1.000000
  111       -1.708932   1.000000
  112       -1.531746   1.000000
  113       -1.526977   1.000000
  114       -1.477353   1.000000
  115       -1.413448   1.000000
  116       -1.364617   1.000000
  117       -1.332898   1.000000
  118       -1.196781   1.000000
  119       -1.159551   1.000000
  120       -1.054889   1.000000
  121       -0.988753   1.000000
  122       -0.976527   1.000000
  123       -0.975390   1.000000
  124       -0.942057   1.000000
  125       -0.831318   1.000000
  126       -0.668447   1.000000
  127       -0.655310   1.000000
  128       -0.576866   1.000000
  129       -0.510684   1.000000
  130       -0.455371   1.000000
  131       -0.308497   1.000000
  132       -0.269701   1.000000
  133        0.007555   1.000000
  134        0.042955   1.000000
  135        0.180635   1.000247
  136        0.334740   1.035039
  137        0.417178   0.844084
  138        0.435692   0.719035
  139        0.451238   0.595692
  140        0.582808  -0.035374
  141        0.665434  -0.007294
  142        0.681773  -0.004105
  143        0.741943  -0.000283
  144        0.775302  -0.000045
  145        0.813732  -0.000004
  146        0.828325  -0.000001
  147        0.896785  -0.000000
  148        0.950678  -0.000000
  149        1.097797  -0.000000
  150        1.103772  -0.000000
  151        1.214235  -0.000000
  152        1.286953  -0.000000
  153        1.334318  -0.000000
  154        1.336076  -0.000000
  155        1.385154  -0.000000
  156        1.417020  -0.000000
  157        1.524505  -0.000000
  158        1.555906  -0.000000
  159        1.576451  -0.000000
  160        1.585300  -0.000000
  161        1.593797  -0.000000
  162        1.609415  -0.000000
  163        1.624976  -0.000000
  164        1.660948  -0.000000
  165        1.722988  -0.000000
  166        1.735141  -0.000000
  167        1.743189  -0.000000
  168        1.769149  -0.000000
  169        1.802705  -0.000000
  170        1.830688  -0.000000
  171        1.852857  -0.000000
  172        1.893129  -0.000000
  173        1.985254  -0.000000
  174        2.024007  -0.000000
  175        2.069661  -0.000000
  176        2.201325  -0.000000
  177        2.700909  -0.000000
  178        2.755518  -0.000000
  179        3.121478  -0.000000
  180        3.181991  -0.000000

  0.3742002E-15  0.1262379E-14  0.1111111E+00  0.4444444E-01
    1      -13.911709   1.000000
    2      -12.792371   1.000000
    3      -12.726049   1.000000
    4      -12.688862   1.000000
    5      -11.936909   1.000000
    6      -11.724638   1.000000
    7      -11.562504   1.000000
    8      -11.460696   1.000000
    9      -11.443756   1.000000
   10      -11.304235   1.000000
   11      -11.207415   1.000000
   12      -10.938155   1.000000
   13      -10.913172   1.000000
   14      -10.647671   1.000000
   15      -10.455754   1.000000
   16      -10.391034   1.000000
   17      -10.164494   1.000000
   18      -10.075047   1.000000
   19       -9.952214   1.000000
   20       -9.697381   1.000000
   21       -9.560719   1.000000
   22       -9.459255   1.000000
   23       -9.432141   1.000000
   24       -9.298065   1.000000
   25       -8.930297   1.000000
   26       -8.767401   1.000000
   27       -8.568083   1.000000
   28       -8.552002   1.000000
   29       -8.349671   1.000000
   30       -8.058258   1.000000
   31       -7.921554   1.000000
   32       -7.826461   1.000000
   33       -7.695265   1.000000
   34       -7.595853   1.000000
   35       -7.321928   1.000000
   36       -7.231666   1.000000
   37       -6.899031   1.000000
   38       -6.786959   1.000000
   39       -6.675376   1.000000
   40       -6.578776   1.000000
   41       -6.547000   1.000000
   42       -6.541773   1.000000
   43       -6.497871   1.000000
   44       -6.344668   1.000000
   45       -6.327963   1.000000
   46       -6.197124   1.000000
   47       -6.089479   1.000000
   48       -6.082083   1.000000
   49       -6.062870   1.000000
   50       -6.012208   1.000000
   51       -5.703587   1.000000
   52       -5.651230   1.000000
   53       -5.601663   1.000000
   54       -5.548297   1.000000
   55       -5.524020   1.000000
   56       -5.496023   1.000000
   57       -5.313384   1.000000
   58       -5.257580   1.000000
   59       -5.187350   1.000000
   60       -5.130316   1.000000
   61       -5.067748   1.000000
   62       -4.924323   1.000000
   63       -4.581005   1.000000
   64       -4.562631   1.000000
   65       -4.448458   1.000000
   66       -4.447404   1.000000
   67       -4.415704   1.000000
   68       -4.347830   1.000000
   69       -4.255910   1.000000
   70       -4.030814   1.000000
   71       -3.987069   1.000000
   72       -3.959434   1.000000
   73       -3.936377   1.000000
   74       -3.895658   1.000000
   75       -3.850715   1.000000
   76       -3.833334   1.000000
   77       -3.829425   1.000000
   78       -3.793408   1.000000
   79       -3.750069   1.000000
   80       -3.671835   1.000000
   81       -3.658847   1.000000
   82       -3.622782   1.000000
   83       -3.571866   1.000000
   84       -3.540509   1.000000
   85       -3.468876   1.000000
   86       -3.450370   1.000000
   87       -3.422365   1.000000
   88       -3.377703   1.000000
   89       -3.361743   1.000000
   90       -3.277737   1.000000
   91       -3.267617   1.000000
   92       -3.078574   1.000000
   93       -2.915869   1.000000
   94       -2.826163   1.000000
   95       -2.808763   1.000000
   96       -2.781571   1.000000
   97       -2.621002   1.000000
   98       -2.570051   1.000000
   99       -2.423105   1.000000
  100       -2.357944   1.000000
  101       -2.310292   1.000000
  102       -2.307856   1.000000
  103       -2.185113   1.000000
  104       -2.146935   1.000000
  105       -2.119726   1.000000
  106       -2.009316   1.000000
  107       -1.937205   1.000000
  108       -1.902039   1.000000
  109       -1.889996   1.000000
  110       -1.859717   1.000000
  111       -1.755318   1.000000
  112       -1.744105   1.000000
  113       -1.646232   1.000000
  114       -1.631818   1.000000
  115       -1.609855   1.000000
  116       -1.529143   1.000000
  117       -1.475308   1.000000
  118       -1.432070   1.000000
  119       -1.306745   1.000000
  120       -1.241726   1.000000
  121       -1.171448   1.000000
  122       -0.912671   1.000000
  123       -0.811483   1.000000
  124       -0.693681   1.000000
  125       -0.621821   1.000000
  126       -0.557777   1.000000
  127       -0.447644   1.000000
  128       -0.416664   1.000000
  129       -0.379121   1.000000
  130       -0.131287   1.000000
  131       -0.072940   1.000000
  132       -0.041703   1.000000
  133        0.140539   1.000026
  134        0.305684   1.024481
  135        0.379932   0.996624
  136        0.394285   0.953950
  137        0.405062   0.908785
  138        0.446461   0.634844
  139        0.515840   0.112766
  140        0.538754   0.020533
  141        0.547477  -0.001436
  142        0.556581  -0.017662
  143        0.651056  -0.011408
  144        0.733190  -0.000440
  145        0.735630  -0.000390
  146        0.741753  -0.000286
  147        0.914118  -0.000000
  148        0.939731  -0.000000
  149        1.031310  -0.000000
  150        1.095561  -0.000000
  151        1.129817  -0.000000
  152        1.204005  -0.000000
  153        1.222837  -0.000000
  154        1.281752  -0.000000
  155        1.332080  -0.000000
  156        1.368458  -0.000000
  157        1.384597  -0.000000
  158        1.402736  -0.000000
  159        1.435830  -0.000000
  160        1.475098  -0.000000
  161        1.482826  -0.000000
  162        1.537235  -0.000000
  163        1.549498  -0.000000
  164        1.598997  -0.000000
  165        1.629222  -0.000000
  166        1.675627  -0.000000
  167        1.730125  -0.000000
  168        1.747794  -0.000000
  169        1.785123  -0.000000
  170        1.821017  -0.000000
  171        1.846787  -0.000000
  172        1.908872  -0.000000
  173        1.944427  -0.000000
  174        2.020080  -0.000000
  175        2.422803  -0.000000
  176        2.444884  -0.000000
  177        2.497129  -0.000000
  178        3.110675  -0.000000
  179        4.028973   0.000000
  180        4.222132   0.000000

  0.2000000E+00  0.1262379E-14  0.1111111E+00  0.4444444E-01
    1      -13.862930   1.000000
    2      -13.151382   1.000000
    3      -12.686180   1.000000
    4      -12.254404   1.000000
    5      -12.014975   1.000000
    6      -11.917654   1.000000
    7      -11.623526   1.000000
    8      -11.340004   1.000000
    9      -11.281355   1.000000
   10      -11.236498   1.000000
   11      -11.070244   1.000000
   12      -11.040884   1.000000
   13      -10.783357   1.000000
   14      -10.645894   1.000000
   15      -10.601144   1.000000
   16      -10.492448   1.000000
   17      -10.442495   1.000000
   18      -10.208074   1.000000
   19      -10.014251   1.000000
   20       -9.560512   1.000000
   21       -9.475343   1.000000
   22       -9.437014   1.000000
   23       -9.333005   1.000000
   24       -9.263147   1.000000
   25       -9.119371   1.000000
   26       -8.788616   1.000000
   27       -8.445817   1.000000
   28       -8.397064   1.000000
   29       -8.116573   1.000000
   30       -8.043250   1.000000
   31       -8.033177   1.000000
   32       -7.837687   1.000000
   33       -7.683725   1.000000
   34       -7.470575   1.000000
   35       -7.439683   1.000000
   36       -7.274838   1.000000
   37       -7.022332   1.000000
   38       -6.868744   1.000000
   39       -6.783499   1.000000
   40       -6.616489   1.000000
   41       -6.610790   1.000000
   42       -6.554462   1.000000
   43       -6.460377   1.000000
   44       -6.396236   1.000000
   45       -6.356754   1.000000
   46       -6.291160   1.000000
   47       -6.170568   1.000000
   48       -6.021650   1.000000
   49       -5.992341   1.000000
   50       -5.826490   1.000000
   51       -5.757593   1.000000
   52       -5.696014   1.000000
   53       -5.602427   1.000000
   54       -5.540914   1.000000
   55       -5.367131   1.000000
   56       -5.260211   1.000000
   57       -5.209749   1.000000
   58       -5.169042   1.000000
   59       -5.141644   1.000000
   60       -5.120921   1.000000
   61       -5.051961   1.000000
   62       -5.038895   1.000000
   63       -4.792708   1.000000
   64       -4.675804   1.000000
   65       -4.504383   1.000000
   66       -4.454100   1.000000
   67       -4.399516   1.000000
   68       -4.321115   1.000000
   69       -4.176001   1.000000
   70       -4.053063   1.000000
   71       -4.018450   1.000000
   72       -3.988085   1.000000
   73       -3.925193   1.000000
   74       -3.920786   1.000000
   75       -3.874524   1.000000
   76       -3.870155   1.000000
   77       -3.785714   1.000000
   78       -3.758491   1.000000
   79       -3.732890   1.000000
   80       -3.661511   1.000000
   81       -3.621033   1.000000
   82       -3.602745   1.000000
   83       -3.576653   1.000000
   84       -3.535778   1.000000
   85       -3.489206   1.000000
   86       -3.473572   1.000000
   87       -3.439023   1.000000
   88       -3.394345   1.000000
   89       -3.328840   1.000000
   90       -3.238972   1.000000
   91       -3.182048   1.000000
   92       -3.115271   1.000000
   93       -2.958402   1.000000
   94       -2.849395   1.000000
   95       -2.786219   1.000000
   96       -2.758586   1.000000
   97       -2.711342   1.000000
   98       -2.583473   1.000000
   99       -2.545646   1.000000
  100       -2.387763   1.000000
  101       -2.311459   1.000000
  102       -2.239189   1.000000
  103       -2.155186   1.000000
  104       -2.144766   1.000000
  105       -2.102293   1.000000
  106       -2.024204   1.000000
  107       -1.929702   1.000000
  108       -1.913950   1.000000
  109       -1.866627   1.000000
  110       -1.838321   1.000000
  111       -1.766585   1.000000
  112       -1.680637   1.000000
  113       -1.612940   1.000000
  114       -1.593499   1.000000
  115       -1.536127   1.000000
  116       -1.484659   1.000000
  117       -1.434952   1.000000
  118       -1.343971   1.000000
  119       -1.295098   1.000000
  120       -1.244403   1.000000
  121       -1.173959   1.000000
  122       -0.968875   1.000000
  123       -0.805664   1.000000
  124       -0.794351   1.000000
  125       -0.690436   1.000000
  126       -0.646490   1.000000
  127       -0.523385   1.000000
  128       -0.519147   1.000000
  129       -0.275586   1.000000
  130       -0.239271   1.000000
  131       -0.107484   1.000000
  132        0.051658   1.000000
  133        0.172245   1.000158
  134        0.244202   1.004216
  135        0.266909   1.009158
  136        0.275670   1.011904
  137        0.323763   1.032179
  138        0.385848   0.981341
  139        0.480857   0.348528
  140        0.557338  -0.018733
  141        0.619531  -0.024499
  142        0.635846  -0.017167
  143        0.661272  -0.008350
  144        0.734067  -0.000421
  145        0.771035  -0.000058
  146        0.776854  -0.000041
  147        0.905124  -0.000000
  148        1.027034  -0.000000
  149        1.048938  -0.000000
  150        1.111134  -0.000000
  151        1.135676  -0.000000
  152        1.180387  -0.000000
  153        1.303266  -0.000000
  154        1.344389  -0.000000
  155        1.374742  -0.000000
  156        1.423026  -0.000000
  157        1.438181  -0.000000
  158        1.459336  -0.000000
  159        1.464887  -0.000000
  160        1.481395  -0.000000
  161        1.502240  -0.000000
  162        1.527965  -0.000000
  163        1.551107  -0.000000
  164        1.629940  -0.000000
  165        1.637445  -0.000000
  166        1.661508  -0.000000
  167        1.698424  -0.000000
  168        1.721101  -0.000000
  169        1.783635  -0.000000
  170        1.812161  -0.000000
  171        1.827065  -0.000000
  172        1.906523  -0.000000
  173        1.942057  -0.000000