 running on   72 total cores
 distrk:  each k-point on   72 cores,    1 groups
 distr:  one band on   12 cores,    6 groups
 using from now: INCAR     
 vasp.5.4.4.18Apr17-6-g9f103f2a35 (build Dec  7 2020 12:43:57) complex           
 POSCAR found type information on POSCAR  Mo V  B  H 
 POSCAR found :  4 types and      74 ions
 scaLAPACK will be used

 ----------------------------------------------------------------------------- 
|                                                                             |
|  ADVICE TO THIS USER RUNNING 'VASP/VAMP'   (HEAR YOUR MASTER'S VOICE ...):  |
|                                                                             |
|      You enforced a specific xc-type in the INCAR file,                     |
|      a different type was found on the POTCAR file                          |
|          I HOPE YOU KNOW, WHAT YOU ARE  DOING                               |
|                                                                             |
 ----------------------------------------------------------------------------- 

 LDA part: xc-table for Pade appr. of Perdew
 POSCAR, INCAR and KPOINTS ok, starting setup
 resort distribution
 resort distribution
 resort distribution
 resort distribution
 resort distribution
 resort distribution
 resort distribution
 resort distribution
 resort distribution
 resort distribution
 resort distribution
 resort distribution
 resort distribution
 resort distribution
 resort distribution
 resort distribution
 resort distribution
 resort distribution
 resort distribution
 resort distribution
 resort distribution
 resort distribution
 resort distribution
 resort distribution
 resort distribution
 resort distribution
 resort distribution
 resort distribution
 resort distribution
 resort distribution
 resort distribution
 resort distribution
 resort distribution
 resort distribution
 resort distribution
 resort distribution
 resort distribution
 resort distribution
 resort distribution
 resort distribution
 resort distribution
 resort distribution
 resort distribution
 resort distribution
 resort distribution
 resort distribution
 resort distribution
 resort distribution
 resort distribution
 resort distribution
 resort distribution
 resort distribution
 resort distribution
 resort distribution
 resort distribution
 resort distribution
 resort distribution
 resort distribution
 resort distribution
 resort distribution
 resort distribution
 resort distribution
 resort distribution
 resort distribution
 resort distribution
 resort distribution
 resort distribution
 resort distribution
 resort distribution
 resort distribution
 resort distribution
 resort distribution
 FFT: planning ...
 WAVECAR not read
 augmentation electrons   278.02613209744271     
 soft         electrons   0.0000000000000000     
 augmentation electrons   278.02613209744271     
 soft         electrons   0.0000000000000000     
 augmentation electrons   278.02613209744271     
 soft         electrons   0.0000000000000000     
 augmentation electrons   278.02613209744271     
 soft         electrons   0.0000000000000000     
 augmentation electrons   278.02613209744271     
 soft         electrons   0.0000000000000000     
 augmentation electrons   278.02613209744271     
 soft         electrons   0.0000000000000000     
 augmentation electrons   278.02613209744271     
 soft         electrons   0.0000000000000000     
 augmentation electrons   278.02613209744271     
 soft         electrons   0.0000000000000000     
 augmentation electrons   278.02613209744271     
 soft         electrons   0.0000000000000000     
 augmentation electrons   278.02613209744271     
 soft         electrons   0.0000000000000000     
 augmentation electrons   278.02613209744271     
 soft         electrons   0.0000000000000000     
 augmentation electrons   278.02613209744271     
 soft         electrons   0.0000000000000000     
 augmentation electrons   278.02613209744271     
 soft         electrons   0.0000000000000000     
 augmentation electrons   278.02613209744271     
 soft         electrons   0.0000000000000000     
 augmentation electrons   278.02613209744271     
 soft         electrons   0.0000000000000000     
 augmentation electrons   278.02613209744271     
 soft         electrons   0.0000000000000000     
 augmentation electrons   278.02613209744271     
 soft         electrons   0.0000000000000000     
 augmentation electrons   278.02613209744271     
 soft         electrons   0.0000000000000000     
 augmentation electrons   278.02613209744271     
 soft         electrons   0.0000000000000000     
 augmentation electrons   278.02613209744271     
 soft         electrons   0.0000000000000000     
 augmentation electrons   278.02613209744271     
 soft         electrons   0.0000000000000000     
 augmentation electrons   278.02613209744271     
 soft         electrons   0.0000000000000000     
 augmentation electrons   278.02613209744271     
 soft         electrons   0.0000000000000000     
 augmentation electrons   278.02613209744271     
 soft         electrons   0.0000000000000000     
 augmentation electrons   278.02613209744271     
 soft         electrons   0.0000000000000000     
 augmentation electrons   278.02613209744271     
 soft         electrons   0.0000000000000000     
 augmentation electrons   278.02613209744271     
 soft         electrons   0.0000000000000000     
 augmentation electrons   278.02613209744271     
 soft         electrons   0.0000000000000000     
 augmentation electrons   278.02613209744271     
 soft         electrons   0.0000000000000000     
 augmentation electrons   278.02613209744271     
 soft         electrons   0.0000000000000000     
 augmentation electrons   278.02613209744271     
 soft         electrons   0.0000000000000000     
 augmentation electrons   278.02613209744271     
 soft         electrons   0.0000000000000000     
 augmentation electrons   278.02613209744271     
 soft         electrons   0.0000000000000000     
 augmentation electrons   278.02613209744271     
 soft         electrons   0.0000000000000000     
 augmentation electrons   278.02613209744271     
 soft         electrons   0.0000000000000000     
 augmentation electrons   278.02613209744271     
 soft         electrons   0.0000000000000000     
 augmentation electrons   278.02613209744271     
 soft         electrons   0.0000000000000000     
 augmentation electrons   278.02613209744271     
 soft         electrons   0.0000000000000000     
 augmentation electrons   278.02613209744271     
 soft         electrons   0.0000000000000000     
 augmentation electrons   278.02613209744271     
 soft         electrons   0.0000000000000000     
 augmentation electrons   278.02613209744271     
 soft         electrons   0.0000000000000000     
 augmentation electrons   278.02613209744271     
 soft         electrons   0.0000000000000000     
 augmentation electrons   278.02613209744271     
 soft         electrons   0.0000000000000000     
 augmentation electrons   278.02613209744271     
 soft         electrons   0.0000000000000000     
 augmentation electrons   278.02613209744271     
 soft         electrons   0.0000000000000000     
 augmentation electrons   278.02613209744271     
 soft         electrons   0.0000000000000000     
 augmentation electrons   278.02613209744271     
 soft         electrons   0.0000000000000000     
 augmentation electrons   278.02613209744271     
 soft         electrons   0.0000000000000000     
 augmentation electrons   278.02613209744271     
 soft         electrons   0.0000000000000000     
 augmentation electrons   278.02613209744271     
 soft         electrons   0.0000000000000000     
 augmentation electrons   278.02613209744271     
 soft         electrons   0.0000000000000000     
 augmentation electrons   278.02613209744271     
 soft         electrons   0.0000000000000000     
 augmentation electrons   278.02613209744271     
 soft         electrons   0.0000000000000000     
 augmentation electrons   278.02613209744271     
 soft         electrons   0.0000000000000000     
 augmentation electrons   278.02613209744271     
 soft         electrons   0.0000000000000000     
 augmentation electrons   278.02613209744271     
 soft         electrons   0.0000000000000000     
 augmentation electrons   278.02613209744271     
 soft         electrons   0.0000000000000000     
 augmentation electrons   278.02613209744271     
 soft         electrons   0.0000000000000000     
 augmentation electrons   278.02613209744271     
 soft         electrons   0.0000000000000000     
 augmentation electrons   278.02613209744271     
 soft         electrons   0.0000000000000000     
 augmentation electrons   278.02613209744271     
 soft         electrons   0.0000000000000000     
 augmentation electrons   278.02613209744271     
 soft         electrons   0.0000000000000000     
 augmentation electrons   278.02613209744271     
 soft         electrons   0.0000000000000000     
 augmentation electrons   278.02613209744271     
 soft         electrons   0.0000000000000000     
 augmentation electrons   278.02613209744271     
 soft         electrons   0.0000000000000000     
 augmentation electrons   278.02613209744271     
 soft         electrons   0.0000000000000000     
 augmentation electrons   278.02613209744271     
 soft         electrons   0.0000000000000000     
 augmentation electrons   278.02613209744271     
 soft         electrons   0.0000000000000000     
 augmentation electrons   278.02613209744271     
 soft         electrons   0.0000000000000000     
 augmentation electrons   278.02613209744271     
 soft         electrons   0.0000000000000000     
 augmentation electrons   278.02613209744271     
 soft         electrons   0.0000000000000000     
 total        electrons   278.02613209744271     
 total        electrons   278.02613209744271     
 total        electrons   278.02613209744271     
 total        electrons   278.02613209744271     
 total        electrons   278.02613209744271     
 total        electrons   278.02613209744271     
 total        electrons   278.02613209744271     
 total        electrons   278.02613209744271     
 total        electrons   278.02613209744271     
 total        electrons   278.02613209744271     
 total        electrons   278.02613209744271     
 total        electrons   278.02613209744271     
 total        electrons   278.02613209744271     
 total        electrons   278.02613209744271     
 total        electrons   278.02613209744271     
 total        electrons   278.02613209744271     
 total        electrons   278.02613209744271     
 total        electrons   278.02613209744271     
 total        electrons   278.02613209744271     
 total        electrons   278.02613209744271     
 total        electrons   278.02613209744271     
 total        electrons   278.02613209744271     
 total        electrons   278.02613209744271     
 total        electrons   278.02613209744271     
 total        electrons   278.02613209744271     
 total        electrons   278.02613209744271     
 total        electrons   278.02613209744271     
 total        electrons   278.02613209744271     
 total        electrons   278.02613209744271     
 total        electrons   278.02613209744271     
 total        electrons   278.02613209744271     
 total        electrons   278.02613209744271     
 total        electrons   278.02613209744271     
 total        electrons   278.02613209744271     
 total        electrons   278.02613209744271     
 total        electrons   278.02613209744271     
 total        electrons   278.02613209744271     
 total        electrons   278.02613209744271     
 total        electrons   278.02613209744271     
 total        electrons   278.02613209744271     
 total        electrons   278.02613209744271     
 augmentation electrons   278.02613209744271     
 soft         electrons   0.0000000000000000     
 total        electrons   278.02613209744271     
 total        electrons   278.02613209744271     
 total        electrons   278.02613209744271     
 total        electrons   278.02613209744271     
 total        electrons   278.02613209744271     
 total        electrons   278.02613209744271     
 total        electrons   278.02613209744271     
 total        electrons   278.02613209744271     
 total        electrons   278.02613209744271     
 total        electrons   278.02613209744271     
 total        electrons   278.02613209744271     
 total        electrons   278.02613209744271     
 total        electrons   278.02613209744271     
 total        electrons   278.02613209744271     
 total        electrons   278.02613209744271     
 total        electrons   278.02613209744271     
 total        electrons   278.02613209744271     
 total        electrons   278.02613209744271     
 total        electrons   278.02613209744271     
 total        electrons   278.02613209744271     
 total        electrons   278.02613209744271     
 total        electrons   278.02613209744271     
 total        electrons   278.02613209744271     
 total        electrons   278.02613209744271     
 total        electrons   278.02613209744271     
 total        electrons   278.02613209744271     
 total        electrons   278.02613209744271     
 total        electrons   278.02613209744271     
 total        electrons   278.02613209744271     
 total        electrons   278.02613209744271     
 total        electrons   278.02613209744271     
 augmentation electrons   864.17172981569820     
 soft         electrons   0.0000000000000000     
 augmentation electrons   864.17172981569820     
 soft         electrons   0.0000000000000000     
 augmentation electrons   864.17172981569820     
 soft         electrons   0.0000000000000000     
 augmentation electrons   864.17172981569820     
 soft         electrons   0.0000000000000000     
 augmentation electrons   864.17172981569820     
 soft         electrons   0.0000000000000000     
 augmentation electrons   864.17172981569820     
 soft         electrons   0.0000000000000000     
 augmentation electrons   864.17172981569820     
 soft         electrons   0.0000000000000000     
 augmentation electrons   864.17172981569820     
 soft         electrons   0.0000000000000000     
 augmentation electrons   864.17172981569820     
 soft         electrons   0.0000000000000000     
 augmentation electrons   864.17172981569820     
 soft         electrons   0.0000000000000000     
 augmentation electrons   864.17172981569820     
 soft         electrons   0.0000000000000000     
 augmentation electrons   864.17172981569820     
 soft         electrons   0.0000000000000000     
 augmentation electrons   864.17172981569820     
 soft         electrons   0.0000000000000000     
 augmentation electrons   864.17172981569820     
 soft         electrons   0.0000000000000000     
 augmentation electrons   864.17172981569820     
 soft         electrons   0.0000000000000000     
 augmentation electrons   864.17172981569820     
 soft         electrons   0.0000000000000000     
 augmentation electrons   864.17172981569820     
 soft         electrons   0.0000000000000000     
 augmentation electrons   864.17172981569820     
 soft         electrons   0.0000000000000000     
 augmentation electrons   864.17172981569820     
 soft         electrons   0.0000000000000000     
 augmentation electrons   864.17172981569820     
 soft         electrons   0.0000000000000000     
 augmentation electrons   864.17172981569820     
 soft         electrons   0.0000000000000000     
 augmentation electrons   864.17172981569820     
 soft         electrons   0.0000000000000000     
 augmentation electrons   864.17172981569820     
 soft         electrons   0.0000000000000000     
 augmentation electrons   864.17172981569820     
 soft         electrons   0.0000000000000000     
 augmentation electrons   864.17172981569820     
 soft         electrons   0.0000000000000000     
 augmentation electrons   864.17172981569820     
 soft         electrons   0.0000000000000000     
 augmentation electrons   864.17172981569820     
 soft         electrons   0.0000000000000000     
 augmentation electrons   864.17172981569820     
 soft         electrons   0.0000000000000000     
 augmentation electrons   864.17172981569820     
 soft         electrons   0.0000000000000000     
 augmentation electrons   864.17172981569820     
 soft         electrons   0.0000000000000000     
 augmentation electrons   864.17172981569820     
 soft         electrons   0.0000000000000000     
 augmentation electrons   864.17172981569820     
 soft         electrons   0.0000000000000000     
 augmentation electrons   864.17172981569820     
 soft         electrons   0.0000000000000000     
 augmentation electrons   864.17172981569820     
 soft         electrons   0.0000000000000000     
 augmentation electrons   864.17172981569820     
 soft         electrons   0.0000000000000000     
 augmentation electrons   864.17172981569820     
 soft         electrons   0.0000000000000000     
 augmentation electrons   864.17172981569820     
 soft         electrons   0.0000000000000000     
 augmentation electrons   864.17172981569820     
 soft         electrons   0.0000000000000000     
 augmentation electrons   864.17172981569820     
 soft         electrons   0.0000000000000000     
 augmentation electrons   864.17172981569820     
 soft         electrons   0.0000000000000000     
 augmentation electrons   864.17172981569820     
 soft         electrons   0.0000000000000000     
 augmentation electrons   864.17172981569820     
 soft         electrons   0.0000000000000000     
 augmentation electrons   864.17172981569820     
 soft         electrons   0.0000000000000000     
 augmentation electrons   864.17172981569820     
 soft         electrons   0.0000000000000000     
 augmentation electrons   864.17172981569820     
 soft         electrons   0.0000000000000000     
 augmentation electrons   864.17172981569820     
 soft         electrons   0.0000000000000000     
 augmentation electrons   864.17172981569820     
 soft         electrons   0.0000000000000000     
 augmentation electrons   864.17172981569820     
 soft         electrons   0.0000000000000000     
 augmentation electrons   864.17172981569820     
 soft         electrons   0.0000000000000000     
 augmentation electrons   864.17172981569820     
 soft         electrons   0.0000000000000000     
 augmentation electrons   864.17172981569820     
 soft         electrons   0.0000000000000000     
 augmentation electrons   864.17172981569820     
 soft         electrons   0.0000000000000000     
 augmentation electrons   864.17172981569820     
 soft         electrons   0.0000000000000000     
 augmentation electrons   864.17172981569820     
 soft         electrons   0.0000000000000000     
 augmentation electrons   864.17172981569820     
 soft         electrons   0.0000000000000000     
 augmentation electrons   864.17172981569820     
 soft         electrons   0.0000000000000000     
 augmentation electrons   864.17172981569820     
 soft         electrons   0.0000000000000000     
 augmentation electrons   864.17172981569820     
 soft         electrons   0.0000000000000000     
 augmentation electrons   864.17172981569820     
 soft         electrons   0.0000000000000000     
 augmentation electrons   864.17172981569820     
 soft         electrons   0.0000000000000000     
 augmentation electrons   864.17172981569820     
 soft         electrons   0.0000000000000000     
 augmentation electrons   864.17172981569820     
 soft         electrons   0.0000000000000000     
 augmentation electrons   864.17172981569820     
 soft         electrons   0.0000000000000000     
 augmentation electrons   864.17172981569820     
 soft         electrons   0.0000000000000000     
 augmentation electrons   864.17172981569820     
 soft         electrons   0.0000000000000000     
 augmentation electrons   864.17172981569820     
 soft         electrons   0.0000000000000000     
 augmentation electrons   864.17172981569820     
 soft         electrons   0.0000000000000000     
 augmentation electrons   864.17172981569820     
 soft         electrons   0.0000000000000000     
 augmentation electrons   864.17172981569820     
 soft         electrons   0.0000000000000000     
 augmentation electrons   864.17172981569820     
 soft         electrons   0.0000000000000000     
 augmentation electrons   864.17172981569820     
 soft         electrons   0.0000000000000000     
 augmentation electrons   864.17172981569820     
 soft         electrons   0.0000000000000000     
 total        electrons   864.17172981569820     
 total        electrons   864.17172981569820     
 total        electrons   864.17172981569820     
 total        electrons   864.17172981569820     
 total        electrons   864.17172981569820     
 total        electrons   864.17172981569820     
 total        electrons   864.17172981569820     
 total        electrons   864.17172981569820     
 total        electrons   864.17172981569820     
 total        electrons   864.17172981569820     
 total        electrons   864.17172981569820     
 total        electrons   864.17172981569820     
 total        electrons   864.17172981569820     
 total        electrons   864.17172981569820     
 total        electrons   864.17172981569820     
 total        electrons   864.17172981569820     
 total        electrons   864.17172981569820     
 total        electrons   864.17172981569820     
 total        electrons   864.17172981569820     
 total        electrons   864.17172981569820     
 total        electrons   864.17172981569820     
 total        electrons   864.17172981569820     
 total        electrons   864.17172981569820     
 total        electrons   864.17172981569820     
 total        electrons   864.17172981569820     
 total        electrons   864.17172981569820     
 total        electrons   864.17172981569820     
 total        electrons   864.17172981569820     
 total        electrons   864.17172981569820     
 total        electrons   864.17172981569820     
 total        electrons   864.17172981569820     
 total        electrons   864.17172981569820     
 total        electrons   864.17172981569820     
 total        electrons   864.17172981569820     
 total        electrons   864.17172981569820     
 total        electrons   864.17172981569820     
 total        electrons   864.17172981569820     
 total        electrons   864.17172981569820     
 total        electrons   864.17172981569820     
 total        electrons   864.17172981569820     
 total        electrons   864.17172981569820     
 total        electrons   864.17172981569820     
 total        electrons   864.17172981569820     
 total        electrons   864.17172981569820     
 total        electrons   864.17172981569820     
 total        electrons   864.17172981569820     
 total        electrons   864.17172981569820     
 total        electrons   864.17172981569820     
 total        electrons   864.17172981569820     
 total        electrons   864.17172981569820     
 total        electrons   864.17172981569820     
 total        electrons   864.17172981569820     
 total        electrons   864.17172981569820     
 total        electrons   864.17172981569820     
 total        electrons   864.17172981569820     
 total        electrons   864.17172981569820     
 total        electrons   864.17172981569820     
 total        electrons   864.17172981569820     
 total        electrons   864.17172981569820     
 total        electrons   864.17172981569820     
 total        electrons   864.17172981569820     
 total        electrons   864.17172981569820     
 total        electrons   864.17172981569820     
 total        electrons   864.17172981569820     
 total        electrons   864.17172981569820     
 total        electrons   864.17172981569820     
 total        electrons   864.17172981569820     
 total        electrons   864.17172981569820     
 total        electrons   864.17172981569820     
 total        electrons   864.17172981569820     
 total        electrons   864.17172981569820     
 total        electrons   864.17172981569820     
 entering main loop
       N       E                     dE             d eps       ncg     rms          rms(c)
DAV:   1     0.306243752726E+04    0.30624E+04   -0.95692E+04  8280   0.130E+03
DAV:   2     0.840330187355E+02   -0.29784E+04   -0.27630E+04  8868   0.336E+02
DAV:   3    -0.610833125897E+03   -0.69487E+03   -0.67091E+03 12096   0.195E+02
DAV:   4    -0.674040395975E+03   -0.63207E+02   -0.60876E+02 13584   0.656E+01
DAV:   5    -0.677390158093E+03   -0.33498E+01   -0.32043E+01 13872   0.154E+01    0.141E+02
RMM:   6    -0.618584893775E+03    0.58805E+02   -0.14294E+03 11434   0.114E+02    0.716E+01
RMM:   7    -0.648201366665E+03   -0.29616E+02   -0.75538E+02  9736   0.106E+02    0.568E+01
RMM:   8    -0.566168189058E+03    0.82033E+02   -0.94574E+01  8642   0.372E+01    0.243E+01
RMM:   9    -0.575654760233E+03   -0.94866E+01   -0.78469E+01 11324   0.222E+01    0.271E+01
RMM:  10    -0.557235373180E+03    0.18419E+02   -0.15112E+01 10764   0.109E+01    0.167E+01
RMM:  11    -0.557768054393E+03   -0.53268E+00   -0.62065E+00 12174   0.397E+00    0.150E+01
RMM:  12    -0.557581338619E+03    0.18672E+00   -0.89422E-01 11855   0.209E+00    0.139E+01
RMM:  13    -0.557158712976E+03    0.42263E+00   -0.25589E+00 10632   0.503E+00    0.101E+01
RMM:  14    -0.557119285042E+03    0.39428E-01   -0.40084E+00 10340   0.618E+00    0.686E+00
RMM:  15    -0.556562010094E+03    0.55727E+00   -0.13955E+00  9061   0.427E+00    0.325E+00
RMM:  16    -0.556542313112E+03    0.19697E-01   -0.72850E-01 11902   0.199E+00    0.285E+00
RMM:  17    -0.556494591148E+03    0.47722E-01   -0.28120E-01 11222   0.138E+00    0.200E+00
RMM:  18    -0.556462883715E+03    0.31707E-01   -0.17598E-01 12686   0.832E-01    0.125E+00
RMM:  19    -0.556461199489E+03    0.16842E-02   -0.93195E-02 10367   0.852E-01    0.127E+00
RMM:  20    -0.556441689279E+03    0.19510E-01   -0.61436E-02 10892   0.710E-01    0.884E-01
RMM:  21    -0.556439134784E+03    0.25545E-02   -0.42571E-02 10568   0.542E-01    0.953E-01
RMM:  22    -0.556430902446E+03    0.82323E-02   -0.14520E-02 10383   0.340E-01    0.612E-01
RMM:  23    -0.556428766811E+03    0.21356E-02   -0.14664E-02 12953   0.221E-01    0.229E-01
RMM:  24    -0.556428152933E+03    0.61388E-03   -0.85758E-03 12637   0.205E-01    0.292E-01
RMM:  25    -0.556426105781E+03    0.20472E-02   -0.34521E-03 11456   0.154E-01    0.206E-01
RMM:  26    -0.556425589335E+03    0.51645E-03   -0.26538E-03 12598   0.945E-02    0.147E-01
RMM:  27    -0.556425655092E+03   -0.65757E-04   -0.13495E-03 12019   0.899E-02    0.106E-01
RMM:  28    -0.556426085020E+03   -0.42993E-03   -0.99494E-04 12296   0.736E-02    0.596E-02
RMM:  29    -0.556426642780E+03   -0.55776E-03   -0.38760E-04 11195   0.412E-02    0.505E-02
RMM:  30    -0.556426899499E+03   -0.25672E-03   -0.19968E-04 11042   0.336E-02    0.415E-02
RMM:  31    -0.556427109940E+03   -0.21044E-03   -0.14773E-04 11475   0.261E-02    0.271E-02
RMM:  32    -0.556427338530E+03   -0.22859E-03   -0.13590E-04 11231   0.235E-02    0.211E-02
RMM:  33    -0.556427441992E+03   -0.10346E-03   -0.78954E-05 11445   0.132E-02    0.200E-02
RMM:  34    -0.556427470737E+03   -0.28744E-04   -0.14731E-05  8564   0.107E-02    0.134E-02
RMM:  35    -0.556427549368E+03   -0.78631E-04   -0.22349E-05 10148   0.117E-02    0.796E-03
RMM:  36    -0.556427649531E+03   -0.10016E-03   -0.10738E-05  7732   0.644E-03    0.869E-03
RMM:  37    -0.556427778781E+03   -0.12925E-03   -0.81326E-06  7746   0.519E-03    0.563E-03
RMM:  38    -0.556427868541E+03   -0.89760E-04   -0.66853E-06  7649   0.485E-03    0.536E-03
RMM:  39    -0.556427912906E+03   -0.44364E-04   -0.32812E-06  7206   0.442E-03    0.286E-03
RMM:  40    -0.556427957927E+03   -0.45022E-04   -0.29536E-06  6956   0.288E-03    0.188E-03
RMM:  41    -0.556427998458E+03   -0.40530E-04   -0.34748E-06  7018   0.284E-03    0.173E-03
RMM:  42    -0.556428020741E+03   -0.22284E-04   -0.20919E-06  6432   0.223E-03    0.800E-04
RMM:  43    -0.556428026389E+03   -0.56476E-05   -0.57564E-07  5474   0.193E-03    0.739E-04
RMM:  44    -0.556428032094E+03   -0.57050E-05   -0.59491E-07  5278   0.140E-03    0.542E-04
RMM:  45    -0.556428034853E+03   -0.27587E-05   -0.36089E-07  4844   0.126E-03    0.305E-04
RMM:  46    -0.556428035533E+03   -0.68007E-06   -0.18204E-07  4297   0.109E-03
   1 F= -.55642804E+03 E0= -.55642855E+03  d E =0.155525E-02
 augmentation electrons   35.592014390996383     
 soft         electrons   242.50356034974641     
 augmentation electrons   35.592014390996383     
 soft         electrons   242.50356034974641     
 augmentation electrons   35.592014390996383     
 soft         electrons   242.50356034974641     
 augmentation electrons   35.592014390996383     
 soft         electrons   242.50356034974641     
 augmentation electrons   35.592014390996383     
 soft         electrons   242.50356034974641     
 augmentation electrons   35.592014390996383     
 soft         electrons   242.50356034974641     
 augmentation electrons   35.592014390996383     
 soft         electrons   242.50356034974641     
 augmentation electrons   35.592014390996383     
 soft         electrons   242.50356034974641     
 augmentation electrons   35.592014390996383     
 soft         electrons   242.50356034974641     
 augmentation electrons   35.592014390996383     
 soft         electrons   242.50356034974641     
 augmentation electrons   35.592014390996383     
 soft         electrons   242.50356034974641     
 augmentation electrons   35.592014390996383     
 soft         electrons   242.50356034974641     
 augmentation electrons   35.592014390996383     
 soft         electrons   242.50356034974641     
 augmentation electrons   35.592014390996383     
 augmentation electrons   35.592014390996383     
 soft         electrons   242.50356034974641     
 augmentation electrons   35.592014390996383     
 soft         electrons   242.50356034974641     
 augmentation electrons   35.592014390996383     
 soft         electrons   242.50356034974641     
 augmentation electrons   35.592014390996383     
 soft         electrons   242.50356034974641     
 augmentation electrons   35.592014390996383     
 soft         electrons   242.50356034974641     
 augmentation electrons   35.592014390996383     
 soft         electrons   242.50356034974641     
 augmentation electrons   35.592014390996383     
 soft         electrons   242.50356034974641     
 augmentation electrons   35.592014390996383     
 soft         electrons   242.50356034974641     
 augmentation electrons   35.592014390996383     
 soft         electrons   242.50356034974641     
 augmentation electrons   35.592014390996383     
 soft         electrons   242.50356034974641     
 augmentation electrons   35.592014390996383     
 soft         electrons   242.50356034974641     
 augmentation electrons   35.592014390996383     
 soft         electrons   242.50356034974641     
 augmentation electrons   35.592014390996383     
 soft         electrons   242.50356034974641     
 augmentation electrons   35.592014390996383     
 soft         electrons   242.50356034974641     
 augmentation electrons   35.592014390996383     
 soft         electrons   242.50356034974641     
 augmentation electrons   35.592014390996383     
 soft         electrons   242.50356034974641     
 augmentation electrons   35.592014390996383     
 soft         electrons   242.50356034974641     
 augmentation electrons   35.592014390996383     
 soft         electrons   242.50356034974641     
 augmentation electrons   35.592014390996383     
 soft         electrons   242.50356034974641     
 augmentation electrons   35.592014390996383     
 soft         electrons   242.50356034974641     
 augmentation electrons   35.592014390996383     
 soft         electrons   242.50356034974641     
 augmentation electrons   35.592014390996383     
 soft         electrons   242.50356034974641     
 augmentation electrons   35.592014390996383     
 soft         electrons   242.50356034974641     
 augmentation electrons   35.592014390996383     
 soft         electrons   242.50356034974641     
 augmentation electrons   35.592014390996383     
 soft         electrons   242.50356034974641     
 augmentation electrons   35.592014390996383     
 soft         electrons   242.50356034974641     
 augmentation electrons   35.592014390996383     
 soft         electrons   242.50356034974641     
 augmentation electrons   35.592014390996383     
 soft         electrons   242.50356034974641     
 augmentation electrons   35.592014390996383     
 soft         electrons   242.50356034974641     
 augmentation electrons   35.592014390996383     
 soft         electrons   242.50356034974641     
 augmentation electrons   35.592014390996383     
 soft         electrons   242.50356034974641     
 augmentation electrons   35.592014390996383     
 soft         electrons   242.50356034974641     
 augmentation electrons   35.592014390996383     
 soft         electrons   242.50356034974641     
 augmentation electrons   35.592014390996383     
 soft         electrons   242.50356034974641     
 augmentation electrons   35.592014390996383     
 soft         electrons   242.50356034974641     
 augmentation electrons   35.592014390996383     
 soft         electrons   242.50356034974641     
 augmentation electrons   35.592014390996383     
 soft         electrons   242.50356034974641     
 augmentation electrons   35.592014390996383     
 soft         electrons   242.50356034974641     
 augmentation electrons   35.592014390996383     
 soft         electrons   242.50356034974641     
 augmentation electrons   35.592014390996383     
 soft         electrons   242.50356034974641     
 augmentation electrons   35.592014390996383     
 soft         electrons   242.50356034974641     
 augmentation electrons   35.592014390996383     
 soft         electrons   242.50356034974641     
 augmentation electrons   35.592014390996383     
 soft         electrons   242.50356034974641     
 augmentation electrons   35.592014390996383     
 soft         electrons   242.50356034974641     
 augmentation electrons   35.592014390996383     
 soft         electrons   242.50356034974641     
 augmentation electrons   35.592014390996383     
 soft         electrons   242.50356034974641     
 augmentation electrons   35.592014390996383     
 soft         electrons   242.50356034974641     
 augmentation electrons   35.592014390996383     
 soft         electrons   242.50356034974641     
 augmentation electrons   35.592014390996383     
 soft         electrons   242.50356034974641     
 augmentation electrons   35.592014390996383     
 soft         electrons   242.50356034974641     
 augmentation electrons   35.592014390996383     
 soft         electrons   242.50356034974641     
 augmentation electrons   35.592014390996383     
 soft         electrons   242.50356034974641     
 augmentation electrons   35.592014390996383     
 soft         electrons   242.50356034974641     
 augmentation electrons   35.592014390996383     
 soft         electrons   242.50356034974641     
 augmentation electrons   35.592014390996383     
 soft         electrons   242.50356034974641     
 augmentation electrons   35.592014390996383     
 soft         electrons   242.50356034974641     
 augmentation electrons   35.592014390996383     
 soft         electrons   242.50356034974641     
 augmentation electrons   35.592014390996383     
 soft         electrons   242.50356034974641     
 soft         electrons   242.50356034974641     
 total        electrons   278.09557474074279     
 total        electrons   278.09557474074279     
 total        electrons   278.09557474074279     
 total        electrons   278.09557474074279     
 total        electrons   278.09557474074279     
 total        electrons   278.09557474074279     
 total        electrons   278.09557474074279     
 total        electrons   278.09557474074279     
 total        electrons   278.09557474074279     
 total        electrons   278.09557474074279     
 total        electrons   278.09557474074279     
 total        electrons   278.09557474074279     
 total        electrons   278.09557474074279     
 total        electrons   278.09557474074279     
 total        electrons   278.09557474074279     
 total        electrons   278.09557474074279     
 total        electrons   278.09557474074279     
 total        electrons   278.09557474074279     
 total        electrons   278.09557474074279     
 total        electrons   278.09557474074279     
 total        electrons   278.09557474074279     
 total        electrons   278.09557474074279     
 total        electrons   278.09557474074279     
 total        electrons   278.09557474074279     
 total        electrons   278.09557474074279     
 total        electrons   278.09557474074279     
 total        electrons   278.09557474074279     
 total        electrons   278.09557474074279     
 total        electrons   278.09557474074279     
 total        electrons   278.09557474074279     
 total        electrons   278.09557474074279     
 total        electrons   278.09557474074279     
 total        electrons   278.09557474074279     
 total        electrons   278.09557474074279     
 total        electrons   278.09557474074279     
 total        electrons   278.09557474074279     
 total        electrons   278.09557474074279     
 total        electrons   278.09557474074279     
 total        electrons   278.09557474074279     
 total        electrons   278.09557474074279     
 total        electrons   278.09557474074279     
 total        electrons   278.09557474074279     
 total        electrons   278.09557474074279     
 total        electrons   278.09557474074279     
 total        electrons   278.09557474074279     
 total        electrons   278.09557474074279     
 total        electrons   278.09557474074279     
 total        electrons   278.09557474074279     
 total        electrons   278.09557474074279     
 total        electrons   278.09557474074279     
 total        electrons   278.09557474074279     
 total        electrons   278.09557474074279     
 total        electrons   278.09557474074279     
 total        electrons   278.09557474074279     
 total        electrons   278.09557474074279     
 total        electrons   278.09557474074279     
 total        electrons   278.09557474074279     
 total        electrons   278.09557474074279     
 total        electrons   278.09557474074279     
 total        electrons   278.09557474074279     
 total        electrons   278.09557474074279     
 total        electrons   278.09557474074279     
 total        electrons   278.09557474074279     
 total        electrons   278.09557474074279     
 total        electrons   278.09557474074279     
 total        electrons   278.09557474074279     
 total        electrons   278.09557474074279     
 total        electrons   278.09557474074279     
 total        electrons   278.09557474074279     
 total        electrons   278.09557474074279     
 total        electrons   278.09557474074279     
 total        electrons   278.09557474074279     
Note: The following floating-point exceptions are signalling: IEEE_OVERFLOW_FLAG
Note: The following floating-point exceptions are signalling: IEEE_OVERFLOW_FLAG
Note: The following floating-point exceptions are signalling: IEEE_OVERFLOW_FLAG
Note: The following floating-point exceptions are signalling: IEEE_OVERFLOW_FLAG
Note: The following floating-point exceptions are signalling: IEEE_OVERFLOW_FLAG
Note: The following floating-point exceptions are signalling: IEEE_OVERFLOW_FLAG
Note: The following floating-point exceptions are signalling: IEEE_OVERFLOW_FLAG
Note: The following floating-point exceptions are signalling: IEEE_INVALID_FLAG IEEE_OVERFLOW_FLAG
Note: The following floating-point exceptions are signalling: IEEE_OVERFLOW_FLAG
Note: The following floating-point exceptions are signalling: IEEE_OVERFLOW_FLAG
Note: The following floating-point exceptions are signalling: IEEE_OVERFLOW_FLAG
Note: The following floating-point exceptions are signalling: IEEE_OVERFLOW_FLAG
Note: The following floating-point exceptions are signalling: IEEE_OVERFLOW_FLAG
Note: The following floating-point exceptions are signalling: IEEE_OVERFLOW_FLAG
Note: The following floating-point exceptions are signalling: IEEE_OVERFLOW_FLAG
Note: The following floating-point exceptions are signalling: IEEE_OVERFLOW_FLAG
Note: The following floating-point exceptions are signalling: IEEE_OVERFLOW_FLAG
Note: The following floating-point exceptions are signalling: IEEE_OVERFLOW_FLAG
Note: The following floating-point exceptions are signalling: IEEE_OVERFLOW_FLAG
Note: The following floating-point exceptions are signalling: IEEE_OVERFLOW_FLAG
Note: The following floating-point exceptions are signalling: IEEE_OVERFLOW_FLAG
Note: The following floating-point exceptions are signalling: IEEE_OVERFLOW_FLAG
Note: The following floating-point exceptions are signalling: IEEE_OVERFLOW_FLAG
Note: The following floating-point exceptions are signalling: IEEE_OVERFLOW_FLAG
Note: The following floating-point exceptions are signalling: IEEE_OVERFLOW_FLAG
Note: The following floating-point exceptions are signalling: IEEE_OVERFLOW_FLAG
Note: The following floating-point exceptions are signalling: IEEE_OVERFLOW_FLAG
Note: The following floating-point exceptions are signalling: IEEE_OVERFLOW_FLAG
Note: The following floating-point exceptions are signalling: IEEE_OVERFLOW_FLAG
Note: The following floating-point exceptions are signalling: IEEE_OVERFLOW_FLAG
Note: The following floating-point exceptions are signalling: IEEE_OVERFLOW_FLAG
Note: The following floating-point exceptions are signalling: IEEE_OVERFLOW_FLAG
Note: The following floating-point exceptions are signalling: IEEE_OVERFLOW_FLAG
Note: The following floating-point exceptions are signalling: IEEE_OVERFLOW_FLAG
Note: The following floating-point exceptions are signalling: IEEE_OVERFLOW_FLAG
Note: The following floating-point exceptions are signalling: IEEE_OVERFLOW_FLAG
Note: The following floating-point exceptions are signalling: IEEE_OVERFLOW_FLAG
Note: The following floating-point exceptions are signalling: IEEE_OVERFLOW_FLAG
Note: The following floating-point exceptions are signalling: IEEE_OVERFLOW_FLAG
Note: The following floating-point exceptions are signalling: IEEE_OVERFLOW_FLAG
Note: The following floating-point exceptions are signalling: IEEE_OVERFLOW_FLAG
Note: The following floating-point exceptions are signalling: IEEE_OVERFLOW_FLAG
Note: The following floating-point exceptions are signalling: IEEE_OVERFLOW_FLAG
Note: The following floating-point exceptions are signalling: IEEE_OVERFLOW_FLAG
Note: The following floating-point exceptions are signalling: IEEE_OVERFLOW_FLAG
Note: The following floating-point exceptions are signalling: IEEE_OVERFLOW_FLAG
Note: The following floating-point exceptions are signalling: IEEE_OVERFLOW_FLAG
Note: The following floating-point exceptions are signalling: IEEE_OVERFLOW_FLAG
Note: The following floating-point exceptions are signalling: IEEE_OVERFLOW_FLAG
Note: The following floating-point exceptions are signalling: IEEE_OVERFLOW_FLAG
Note: The following floating-point exceptions are signalling: IEEE_OVERFLOW_FLAG
Note: The following floating-point exceptions are signalling: IEEE_OVERFLOW_FLAG
Note: The following floating-point exceptions are signalling: IEEE_OVERFLOW_FLAG
Note: The following floating-point exceptions are signalling: IEEE_OVERFLOW_FLAG
Note: The following floating-point exceptions are signalling: IEEE_OVERFLOW_FLAG
Note: The following floating-point exceptions are signalling: IEEE_OVERFLOW_FLAG
Note: The following floating-point exceptions are signalling: IEEE_OVERFLOW_FLAG
Note: The following floating-point exceptions are signalling: IEEE_OVERFLOW_FLAG
Note: The following floating-point exceptions are signalling: IEEE_OVERFLOW_FLAG
Note: The following floating-point exceptions are signalling: IEEE_OVERFLOW_FLAG
Note: The following floating-point exceptions are signalling: IEEE_OVERFLOW_FLAG
Note: The following floating-point exceptions are signalling: IEEE_OVERFLOW_FLAG
Note: The following floating-point exceptions are signalling: IEEE_OVERFLOW_FLAG
Note: The following floating-point exceptions are signalling: IEEE_OVERFLOW_FLAG
Note: The following floating-point exceptions are signalling: IEEE_OVERFLOW_FLAG
Note: The following floating-point exceptions are signalling: IEEE_OVERFLOW_FLAG
Note: The following floating-point exceptions are signalling: IEEE_OVERFLOW_FLAG
Note: The following floating-point exceptions are signalling: IEEE_OVERFLOW_FLAG
Note: The following floating-point exceptions are signalling: IEEE_OVERFLOW_FLAG
Note: The following floating-point exceptions are signalling: IEEE_OVERFLOW_FLAG
Note: The following floating-point exceptions are signalling: IEEE_OVERFLOW_FLAG
Note: The following floating-point exceptions are signalling: IEEE_OVERFLOW_FLAG
