   72   72    1    1
  0.2168974E+02  0.1053953E-08  0.6141200E-09  0.2412750E-08  0.5000000E-15
   1.0000000000000000E-004
  CAR 
 Name                                    
    267     23    176

  0.3742002E-15  0.3742002E-15  0.1262379E-14  0.2222222E-01
    1      -13.860745   1.000000
    2      -12.871074   1.000000
    3      -12.723673   1.000000
    4      -12.331391   1.000000
    5      -11.754325   1.000000
    6      -11.596232   1.000000
    7      -11.542544   1.000000
    8      -11.520667   1.000000
    9      -11.355399   1.000000
   10      -11.117603   1.000000
   11      -10.986158   1.000000
   12      -10.948162   1.000000
   13      -10.729686   1.000000
   14      -10.362247   1.000000
   15      -10.247218   1.000000
   16      -10.152012   1.000000
   17      -10.062113   1.000000
   18       -9.997782   1.000000
   19       -9.769850   1.000000
   20       -9.556403   1.000000
   21       -9.516354   1.000000
   22       -9.427398   1.000000
   23       -9.282182   1.000000
   24       -8.886883   1.000000
   25       -8.817523   1.000000
   26       -8.682351   1.000000
   27       -8.549849   1.000000
   28       -8.381212   1.000000
   29       -8.244130   1.000000
   30       -8.029858   1.000000
   31       -7.927121   1.000000
   32       -7.775933   1.000000
   33       -7.425129   1.000000
   34       -7.404180   1.000000
   35       -7.274629   1.000000
   36       -7.086064   1.000000
   37       -6.990628   1.000000
   38       -6.818606   1.000000
   39       -6.804453   1.000000
   40       -6.722605   1.000000
   41       -6.669182   1.000000
   42       -6.572955   1.000000
   43       -6.432209   1.000000
   44       -6.374967   1.000000
   45       -6.278550   1.000000
   46       -6.171628   1.000000
   47       -6.077540   1.000000
   48       -5.928177   1.000000
   49       -5.898864   1.000000
   50       -5.867947   1.000000
   51       -5.681022   1.000000
   52       -5.623691   1.000000
   53       -5.594824   1.000000
   54       -5.591639   1.000000
   55       -5.499612   1.000000
   56       -5.443281   1.000000
   57       -5.330060   1.000000
   58       -5.302923   1.000000
   59       -5.245649   1.000000
   60       -5.075853   1.000000
   61       -5.047315   1.000000
   62       -4.927751   1.000000
   63       -4.874419   1.000000
   64       -4.737842   1.000000
   65       -4.618324   1.000000
   66       -4.548110   1.000000
   67       -4.505527   1.000000
   68       -4.451152   1.000000
   69       -4.413006   1.000000
   70       -4.374144   1.000000
   71       -4.327953   1.000000
   72       -4.289760   1.000000
   73       -4.162905   1.000000
   74       -4.110983   1.000000
   75       -4.093377   1.000000
   76       -4.050366   1.000000
   77       -3.951905   1.000000
   78       -3.885856   1.000000
   79       -3.827343   1.000000
   80       -3.693530   1.000000
   81       -3.609661   1.000000
   82       -3.587871   1.000000
   83       -3.488273   1.000000
   84       -3.470457   1.000000
   85       -3.339052   1.000000
   86       -3.241404   1.000000
   87       -3.231320   1.000000
   88       -3.216677   1.000000
   89       -3.170022   1.000000
   90       -3.114118   1.000000
   91       -3.074054   1.000000
   92       -3.037333   1.000000
   93       -2.970728   1.000000
   94       -2.841756   1.000000
   95       -2.778602   1.000000
   96       -2.721448   1.000000
   97       -2.604314   1.000000
   98       -2.590883   1.000000
   99       -2.532330   1.000000
  100       -2.438856   1.000000
  101       -2.342447   1.000000
  102       -2.290553   1.000000
  103       -2.213474   1.000000
  104       -2.210215   1.000000
  105       -2.067678   1.000000
  106       -2.040478   1.000000
  107       -2.024773   1.000000
  108       -2.017744   1.000000
  109       -1.888664   1.000000
  110       -1.873839   1.000000
  111       -1.855106   1.000000
  112       -1.689959   1.000000
  113       -1.640809   1.000000
  114       -1.596865   1.000000
  115       -1.325660   1.000000
  116       -1.253821   1.000000
  117       -1.189224   1.000000
  118       -1.108147   1.000000
  119       -1.006778   1.000000
  120       -0.909491   1.000000
  121       -0.816770   1.000000
  122       -0.774226   1.000000
  123       -0.548677   1.000000
  124       -0.429392   1.000013
  125       -0.370147   1.000078
  126       -0.220264   1.002893
  127       -0.193220   1.004826
  128       -0.088372   1.021999
  129       -0.059108   1.028671
  130       -0.035657   1.033142
  131        0.062455   1.005658
  132        0.118965   0.913848
  133        0.153849   0.818044
  134        0.262161   0.391409
  135        0.272135   0.350868
  136        0.316829   0.187813
  137        0.369225   0.053007
  138        0.428413  -0.020563
  139        0.488072  -0.035285
  140        0.539567  -0.026908
  141        0.631108  -0.008680
  142        0.735064  -0.001189
  143        0.775396  -0.000462
  144        0.840954  -0.000082
  145        0.906730  -0.000011
  146        1.015462  -0.000000
  147        1.104347  -0.000000
  148        1.107384  -0.000000
  149        1.173931  -0.000000
  150        1.222609  -0.000000
  151        1.291280  -0.000000
  152        1.304191  -0.000000
  153        1.326992  -0.000000
  154        1.377036  -0.000000
  155        1.409286  -0.000000
  156        1.433401  -0.000000
  157        1.451928  -0.000000
  158        1.479551  -0.000000
  159        1.508485  -0.000000
  160        1.555416  -0.000000
  161        1.568306  -0.000000
  162        1.626261  -0.000000
  163        1.676283  -0.000000
  164        1.695970  -0.000000
  165        1.717244  -0.000000
  166        1.755380  -0.000000
  167        1.815877  -0.000000
  168        1.838568  -0.000000
  169        1.855275  -0.000000
  170        1.934359  -0.000000
  171        1.979540  -0.000000
  172        2.055477  -0.000000
  173        2.102352  -0.000000
  174        2.147073  -0.000000
  175        2.188645  -0.000000
  176        2.250003  -0.000000

  0.2000000E+00  0.3742002E-15  0.1262379E-14  0.4444444E-01
    1      -13.820602   1.000000
    2      -13.107937   1.000000
    3      -12.615296   1.000000
    4      -12.087976   1.000000
    5      -11.912112   1.000000
    6      -11.745886   1.000000
    7      -11.561974   1.000000
    8      -11.322954   1.000000
    9      -11.215833   1.000000
   10      -11.127429   1.000000
   11      -10.953383   1.000000
   12      -10.852522   1.000000
   13      -10.721039   1.000000
   14      -10.544335   1.000000
   15      -10.399054   1.000000
   16      -10.243582   1.000000
   17      -10.153481   1.000000
   18      -10.058949   1.000000
   19       -9.732901   1.000000
   20       -9.622494   1.000000
   21       -9.376929   1.000000
   22       -9.331377   1.000000
   23       -9.247076   1.000000
   24       -8.961316   1.000000
   25       -8.843255   1.000000
   26       -8.738327   1.000000
   27       -8.358551   1.000000
   28       -8.211515   1.000000
   29       -8.076005   1.000000
   30       -7.982182   1.000000
   31       -7.960911   1.000000
   32       -7.867856   1.000000
   33       -7.451691   1.000000
   34       -7.397615   1.000000
   35       -7.333773   1.000000
   36       -7.185625   1.000000
   37       -7.056706   1.000000
   38       -6.983237   1.000000
   39       -6.790555   1.000000
   40       -6.760056   1.000000
   41       -6.643533   1.000000
   42       -6.569566   1.000000
   43       -6.499851   1.000000
   44       -6.417965   1.000000
   45       -6.312436   1.000000
   46       -6.121666   1.000000
   47       -6.004264   1.000000
   48       -5.882928   1.000000
   49       -5.840591   1.000000
   50       -5.801690   1.000000
   51       -5.766167   1.000000
   52       -5.681466   1.000000
   53       -5.625809   1.000000
   54       -5.564244   1.000000
   55       -5.442794   1.000000
   56       -5.350237   1.000000
   57       -5.306701   1.000000
   58       -5.244896   1.000000
   59       -5.199646   1.000000
   60       -5.103457   1.000000
   61       -5.027177   1.000000
   62       -4.962404   1.000000
   63       -4.877836   1.000000
   64       -4.731379   1.000000
   65       -4.664765   1.000000
   66       -4.574673   1.000000
   67       -4.518426   1.000000
   68       -4.426192   1.000000
   69       -4.401637   1.000000
   70       -4.333428   1.000000
   71       -4.308728   1.000000
   72       -4.267725   1.000000
   73       -4.212038   1.000000
   74       -4.119329   1.000000
   75       -4.095162   1.000000
   76       -4.021835   1.000000
   77       -3.935833   1.000000
   78       -3.866756   1.000000
   79       -3.777625   1.000000
   80       -3.733892   1.000000
   81       -3.689437   1.000000
   82       -3.601925   1.000000
   83       -3.505461   1.000000
   84       -3.408170   1.000000
   85       -3.353632   1.000000
   86       -3.307706   1.000000
   87       -3.280128   1.000000
   88       -3.214898   1.000000
   89       -3.194342   1.000000
   90       -3.152290   1.000000
   91       -3.026786   1.000000
   92       -3.019557   1.000000
   93       -2.927634   1.000000
   94       -2.883975   1.000000
   95       -2.858494   1.000000
   96       -2.721589   1.000000
   97       -2.630204   1.000000
   98       -2.592975   1.000000
   99       -2.468874   1.000000
  100       -2.409167   1.000000
  101       -2.389170   1.000000
  102       -2.309423   1.000000
  103       -2.199997   1.000000
  104       -2.138527   1.000000
  105       -2.077851   1.000000
  106       -2.037479   1.000000
  107       -1.968921   1.000000
  108       -1.945170   1.000000
  109       -1.876289   1.000000
  110       -1.847644   1.000000
  111       -1.788006   1.000000
  112       -1.712259   1.000000
  113       -1.639887   1.000000
  114       -1.524500   1.000000
  115       -1.350843   1.000000
  116       -1.239205   1.000000
  117       -1.222537   1.000000
  118       -1.134577   1.000000
  119       -1.052532   1.000000
  120       -0.950319   1.000000
  121       -0.867220   1.000000
  122       -0.789139   1.000000
  123       -0.603565   1.000000
  124       -0.513181   1.000001
  125       -0.340118   1.000178
  126       -0.245283   1.001732
  127       -0.223634   1.002705
  128       -0.130173   1.013226
  129       -0.125513   1.014093
  130       -0.073925   1.025336
  131       -0.006414   1.035438
  132        0.111177   0.931088
  133        0.149115   0.832777
  134        0.243773   0.468226
  135        0.338335   0.124251
  136        0.372733   0.046431
  137        0.388010   0.021268
  138        0.436964  -0.025490
  139        0.525311  -0.030007
  140        0.574676  -0.018893
  141        0.631029  -0.008691
  142        0.725790  -0.001458
  143        0.823392  -0.000133
  144        0.885817  -0.000022
  145        0.960414  -0.000002
  146        1.050181  -0.000000
  147        1.085159  -0.000000
  148        1.148816  -0.000000
  149        1.191298  -0.000000
  150        1.225105  -0.000000
  151        1.262250  -0.000000
  152        1.289740  -0.000000
  153        1.321689  -0.000000
  154        1.387209  -0.000000
  155        1.421992  -0.000000
  156        1.443815  -0.000000
  157        1.492226  -0.000000
  158        1.505362  -0.000000
  159        1.534899  -0.000000
  160        1.563112  -0.000000
  161        1.627512  -0.000000
  162        1.661139  -0.000000
  163        1.680047  -0.000000
  164        1.703801  -0.000000
  165        1.738151  -0.000000
  166        1.790374  -0.000000
  167        1.818140  -0.000000
  168        1.840307  -0.000000
  169        1.859400  -0.000000
  170        1.946978  -0.000000
  171        2.012210  -0.000000
  172        2.055721  -0.000000
  173        2.126746  -0.000000
  174        2.163163  -0.000000
  175        2.226397  -0.000000
  176        2.273123  -0.000000

  0.4000000E+00  0.3742002E-15  0.1262379E-14  0.4444444E-01
    1      -13.720794   1.000000
    2      -13.359897   1.000000
    3      -12.498441   1.000000
    4      -12.172148   1.000000
    5      -11.728853   1.000000
    6      -11.616793   1.000000
    7      -11.601152   1.000000
    8      -11.285148   1.000000
    9      -11.140560   1.000000
   10      -11.064316   1.000000
   11      -11.005095   1.000000
   12      -10.883460   1.000000
   13      -10.709707   1.000000
   14      -10.606295   1.000000
   15      -10.521681   1.000000
   16      -10.424524   1.000000
   17      -10.125073   1.000000
   18      -10.063444   1.000000
   19       -9.932385   1.000000
   20       -9.763959   1.000000
   21       -9.399363   1.000000
   22       -9.286697   1.000000
   23       -9.092232   1.000000
   24       -8.889689   1.000000
   25       -8.766711   1.000000
   26       -8.621261   1.000000
   27       -8.298366   1.000000
   28       -8.170883   1.000000
   29       -7.959339   1.000000
   30       -7.848698   1.000000
   31       -7.739085   1.000000
   32       -7.681835   1.000000
   33       -7.622177   1.000000
   34       -7.543144   1.000000
   35       -7.438181   1.000000
   36       -7.295819   1.000000
   37       -7.243081   1.000000
   38       -7.128856   1.000000
   39       -7.054090   1.000000
   40       -6.831677   1.000000
   41       -6.660163   1.000000
   42       -6.563174   1.000000
   43       -6.415372   1.000000
   44       -6.377666   1.000000
   45       -6.251040   1.000000
   46       -6.027300   1.000000
   47       -5.949538   1.000000
   48       -5.927060   1.000000
   49       -5.897834   1.000000
   50       -5.798401   1.000000
   51       -5.751403   1.000000
   52       -5.707195   1.000000
   53       -5.546641   1.000000
   54       -5.487943   1.000000
   55       -5.440801   1.000000
   56       -5.350498   1.000000
   57       -5.305682   1.000000
   58       -5.227072   1.000000
   59       -5.151265   1.000000
   60       -5.043188   1.000000
   61       -5.023264   1.000000
   62       -4.943666   1.000000
   63       -4.855180   1.000000
   64       -4.741004   1.000000
   65       -4.620045   1.000000
   66       -4.601901   1.000000
   67       -4.540218   1.000000
   68       -4.444585   1.000000
   69       -4.417353   1.000000
   70       -4.349082   1.000000
   71       -4.301642   1.000000
   72       -4.238001   1.000000
   73       -4.172165   1.000000
   74       -4.157511   1.000000
   75       -4.004453   1.000000
   76       -3.957086   1.000000
   77       -3.890808   1.000000
   78       -3.849046   1.000000
   79       -3.809788   1.000000
   80       -3.772784   1.000000
   81       -3.731246   1.000000
   82       -3.650074   1.000000
   83       -3.550236   1.000000
   84       -3.449721   1.000000
   85       -3.426319   1.000000
   86       -3.362868   1.000000
   87       -3.320244   1.000000
   88       -3.241949   1.000000
   89       -3.150518   1.000000
   90       -3.110518   1.000000
   91       -3.034469   1.000000
   92       -3.013722   1.000000
   93       -2.986379   1.000000
   94       -2.852933   1.000000
   95       -2.836632   1.000000
   96       -2.791415   1.000000
   97       -2.747073   1.000000
   98       -2.564530   1.000000
   99       -2.502314   1.000000
  100       -2.473899   1.000000
  101       -2.399916   1.000000
  102       -2.170052   1.000000
  103       -2.152083   1.000000
  104       -2.089682   1.000000
  105       -2.030326   1.000000
  106       -1.943403   1.000000
  107       -1.907089   1.000000
  108       -1.865951   1.000000
  109       -1.849363   1.000000
  110       -1.766958   1.000000
  111       -1.742205   1.000000
  112       -1.645650   1.000000
  113       -1.605911   1.000000
  114       -1.492848   1.000000
  115       -1.425247   1.000000
  116       -1.340546   1.000000
  117       -1.262468   1.000000
  118       -1.209263   1.000000
  119       -1.037368   1.000000
  120       -0.982659   1.000000
  121       -0.913524   1.000000
  122       -0.827690   1.000000
  123       -0.686811   1.000000
  124       -0.675230   1.000000
  125       -0.377796   1.000063
  126       -0.279456   1.000809
  127       -0.266175   1.001097
  128       -0.221579   1.002818
  129       -0.188978   1.005207
  130       -0.149464   1.009999
  131       -0.043268   1.031859
  132        0.088090   0.973328
  133        0.224286   0.550557
  134        0.284872   0.300883
  135        0.314715   0.194647
  136        0.378015   0.037097
  137        0.432986  -0.023345
  138        0.489750  -0.035193
  139        0.577299  -0.018321
  140        0.592025  -0.015258
  141        0.709289  -0.002070
  142        0.739894  -0.001067
  143        0.867585  -0.000038
  144        0.911754  -0.000010
  145        0.968295  -0.000001
  146        0.996054  -0.000001
  147        1.117476  -0.000000
  148        1.194913  -0.000000
  149        1.252208  -0.000000
  150        1.270396  -0.000000
  151        1.303865  -0.000000
  152        1.332143  -0.000000
  153        1.352694  -0.000000
  154        1.403548  -0.000000
  155        1.441715  -0.000000
  156        1.457514  -0.000000
  157        1.480276  -0.000000
  158        1.515574  -0.000000
  159        1.552959  -0.000000
  160        1.593827  -0.000000
  161        1.691018  -0.000000
  162        1.716928  -0.000000
  163        1.728356  -0.000000
  164        1.754789  -0.000000
  165        1.771106  -0.000000
  166        1.787840  -0.000000
  167        1.848916  -0.000000
  168        1.890051  -0.000000
  169        1.939956  -0.000000
  170        1.979498  -0.000000
  171        2.032688  -0.000000
  172        2.081465  -0.000000
  173        2.092865  -0.000000
  174        2.142840  -0.000000
  175        2.185560  -0.000000
  176        2.270633  -0.000000

  0.3742002E-15  0.1111111E+00  0.1262379E-14  0.4444444E-01
    1      -13.815037   1.000000
    2      -12.831862   1.000000
    3      -12.689212   1.000000
    4      -12.300286   1.000000
    5      -11.849184   1.000000
    6      -11.573775   1.000000
    7      -11.553237   1.000000
    8      -11.509949   1.000000
    9      -11.401199   1.000000
   10      -11.142301   1.000000
   11      -10.996098   1.000000
   12      -10.921310   1.000000
   13      -10.758022   1.000000
   14      -10.359070   1.000000
   15      -10.228387   1.000000
   16      -10.158440   1.000000
   17      -10.060413   1.000000
   18       -9.992393   1.000000
   19       -9.738437   1.000000
   20       -9.578885   1.000000
   21       -9.507775   1.000000
   22       -9.436328   1.000000
   23       -9.274874   1.000000
   24       -8.920815   1.000000
   25       -8.832515   1.000000
   26       -8.672747   1.000000
   27       -8.532014   1.000000
   28       -8.398695   1.000000
   29       -8.241381   1.000000
   30       -8.052480   1.000000
   31       -7.805775   1.000000
   32       -7.768659   1.000000
   33       -7.494583   1.000000
   34       -7.414799   1.000000
   35       -7.333532   1.000000
   36       -7.149428   1.000000
   37       -7.051412   1.000000
   38       -6.849443   1.000000
   39       -6.776129   1.000000
   40       -6.676825   1.000000
   41       -6.624433   1.000000
   42       -6.549086   1.000000
   43       -6.405279   1.000000
   44       -6.355666   1.000000
   45       -6.252432   1.000000
   46       -6.163016   1.000000
   47       -6.079843   1.000000
   48       -5.938087   1.000000
   49       -5.895132   1.000000
   50       -5.835362   1.000000
   51       -5.687965   1.000000
   52       -5.640639   1.000000
   53       -5.615959   1.000000
   54       -5.568497   1.000000
   55       -5.512511   1.000000
   56       -5.423035   1.000000
   57       -5.276932   1.000000
   58       -5.237330   1.000000
   59       -5.170633   1.000000
   60       -5.105254   1.000000
   61       -5.033130   1.000000
   62       -4.897730   1.000000
   63       -4.842359   1.000000
   64       -4.729289   1.000000
   65       -4.635024   1.000000
   66       -4.559310   1.000000
   67       -4.518328   1.000000
   68       -4.464779   1.000000
   69       -4.431326   1.000000
   70       -4.379130   1.000000
   71       -4.364163   1.000000
   72       -4.250033   1.000000
   73       -4.146574   1.000000
   74       -4.109233   1.000000
   75       -4.084258   1.000000
   76       -4.035696   1.000000
   77       -3.960009   1.000000
   78       -3.857403   1.000000
   79       -3.841999   1.000000
   80       -3.717537   1.000000
   81       -3.684049   1.000000
   82       -3.600878   1.000000
   83       -3.537903   1.000000
   84       -3.481214   1.000000
   85       -3.383128   1.000000
   86       -3.360329   1.000000
   87       -3.270549   1.000000
   88       -3.185080   1.000000
   89       -3.142116   1.000000
   90       -3.121629   1.000000
   91       -3.074889   1.000000
   92       -3.026821   1.000000
   93       -2.950936   1.000000
   94       -2.920311   1.000000
   95       -2.819240   1.000000
   96       -2.750317   1.000000
   97       -2.623071   1.000000
   98       -2.570151   1.000000
   99       -2.517130   1.000000
  100       -2.440614   1.000000
  101       -2.395117   1.000000
  102       -2.287359   1.000000
  103       -2.237943   1.000000
  104       -2.183458   1.000000
  105       -2.165804   1.000000
  106       -2.036272   1.000000
  107       -2.023422   1.000000
  108       -1.968629   1.000000
  109       -1.879904   1.000000
  110       -1.840962   1.000000
  111       -1.796081   1.000000
  112       -1.720926   1.000000
  113       -1.580781   1.000000
  114       -1.542248   1.000000
  115       -1.339887   1.000000
  116       -1.271432   1.000000
  117       -1.236363   1.000000
  118       -1.092334   1.000000
  119       -1.054168   1.000000
  120       -0.897133   1.000000
  121       -0.805245   1.000000
  122       -0.721983   1.000000
  123       -0.549872   1.000000
  124       -0.471505   1.000003
  125       -0.346019   1.000152
  126       -0.268522   1.001040
  127       -0.180835   1.006007
  128       -0.161853   1.008241
  129       -0.137399   1.011948
  130       -0.080007   1.023930
  131        0.008695   1.034151
  132        0.103626   0.946348
  133        0.210355   0.608593
  134        0.261573   0.393830
  135        0.325548   0.160715
  136        0.366520   0.058288
  137        0.403488   0.001273
  138        0.462379  -0.033911
  139        0.552667  -0.023897
  140        0.568301  -0.020311
  141        0.682246  -0.003550
  142        0.727913  -0.001392
  143        0.837353  -0.000091
  144        0.882450  -0.000024
  145        0.921599  -0.000007
  146        0.976643  -0.000001
  147        1.044323  -0.000000
  148        1.109852  -0.000000
  149        1.155338  -0.000000
  150        1.231804  -0.000000
  151        1.252718  -0.000000
  152        1.290306  -0.000000
  153        1.314662  -0.000000
  154        1.359061  -0.000000
  155        1.389380  -0.000000
  156        1.427035  -0.000000
  157        1.453680  -0.000000
  158        1.494190  -0.000000
  159        1.517045  -0.000000
  160        1.534513  -0.000000
  161        1.599822  -0.000000
  162        1.611097  -0.000000
  163        1.637776  -0.000000
  164        1.662333  -0.000000
  165        1.735219  -0.000000
  166        1.769198  -0.000000
  167        1.804925  -0.000000
  168        1.852499  -0.000000
  169        1.865569  -0.000000
  170        1.902558  -0.000000
  171        1.972879  -0.000000
  172        2.063557  -0.000000
  173        2.085922  -0.000000
  174        2.120419  -0.000000
  175        2.213924  -0.000000
  176        2.284266  -0.000000

  0.2000000E+00  0.1111111E+00  0.1262379E-14  0.4444444E-01
    1      -13.775247   1.000000
    2      -13.068538   1.000000
    3      -12.578295   1.000000
    4      -12.064310   1.000000
    5      -11.884952   1.000000
    6      -11.829049   1.000000
    7      -11.608766   1.000000
    8      -11.360282   1.000000
    9      -11.195843   1.000000
   10      -11.142457   1.000000
   11      -10.968607   1.000000
   12      -10.830755   1.000000
   13      -10.741201   1.000000
   14      -10.530658   1.000000
   15      -10.389395   1.000000
   16      -10.226999   1.000000
   17      -10.166158   1.000000
   18      -10.062315   1.000000
   19       -9.732166   1.000000
   20       -9.605572   1.000000
   21       -9.392183   1.000000
   22       -9.323817   1.000000
   23       -9.243485   1.000000
   24       -8.962786   1.000000
   25       -8.870980   1.000000
   26       -8.730965   1.000000
   27       -8.382715   1.000000
   28       -8.205628   1.000000
   29       -8.090576   1.000000
   30       -8.001319   1.000000
   31       -7.962598   1.000000
   32       -7.731369   1.000000
   33       -7.495528   1.000000
   34       -7.442817   1.000000
   35       -7.360962   1.000000
   36       -7.222114   1.000000
   37       -7.086812   1.000000
   38       -6.914161   1.000000
   39       -6.811867   1.000000
   40       -6.765815   1.000000
   41       -6.629316   1.000000
   42       -6.588313   1.000000
   43       -6.474442   1.000000
   44       -6.376239   1.000000
   45       -6.296453   1.000000
   46       -6.236750   1.000000
   47       -6.028502   1.000000
   48       -5.886972   1.000000
   49       -5.801464   1.000000
   50       -5.756255   1.000000
   51       -5.705138   1.000000
   52       -5.670078   1.000000
   53       -5.614255   1.000000
   54       -5.553647   1.000000
   55       -5.416357   1.000000
   56       -5.352879   1.000000
   57       -5.298261   1.000000
   58       -5.204088   1.000000
   59       -5.144057   1.000000
   60       -5.104355   1.000000
   61       -5.011666   1.000000
   62       -4.941027   1.000000
   63       -4.850024   1.000000
   64       -4.716875   1.000000
   65       -4.642504   1.000000
   66       -4.597506   1.000000
   67       -4.493460   1.000000
   68       -4.458461   1.000000
   69       -4.422469   1.000000
   70       -4.374691   1.000000
   71       -4.281395   1.000000
   72       -4.235379   1.000000
   73       -4.204931   1.000000
   74       -4.150644   1.000000
   75       -4.080455   1.000000
   76       -3.990658   1.000000
   77       -3.944178   1.000000
   78       -3.858591   1.000000
   79       -3.815557   1.000000
   80       -3.759003   1.000000
   81       -3.707673   1.000000
   82       -3.597381   1.000000
   83       -3.540388   1.000000
   84       -3.483302   1.000000
   85       -3.413337   1.000000
   86       -3.358376   1.000000
   87       -3.302340   1.000000
   88       -3.234208   1.000000
   89       -3.156887   1.000000
   90       -3.133950   1.000000
   91       -3.067976   1.000000
   92       -3.021962   1.000000
   93       -2.984012   1.000000
   94       -2.920319   1.000000
   95       -2.862285   1.000000
   96       -2.691526   1.000000
   97       -2.663585   1.000000
   98       -2.576726   1.000000
   99       -2.475441   1.000000
  100       -2.454425   1.000000
  101       -2.346586   1.000000
  102       -2.320262   1.000000
  103       -2.214856   1.000000
  104       -2.164885   1.000000
  105       -2.126689   1.000000
  106       -2.093862   1.000000
  107       -1.966081   1.000000
  108       -1.940013   1.000000
  109       -1.855904   1.000000
  110       -1.799436   1.000000
  111       -1.745744   1.000000
  112       -1.714228   1.000000
  113       -1.621617   1.000000
  114       -1.525864   1.000000
  115       -1.357770   1.000000
  116       -1.282837   1.000000
  117       -1.241496   1.000000
  118       -1.122498   1.000000
  119       -1.079487   1.000000
  120       -0.971086   1.000000
  121       -0.783566   1.000000
  122       -0.749718   1.000000
  123       -0.599142   1.000000
  124       -0.514622   1.000001
  125       -0.369312   1.000080
  126       -0.294852   1.000562
  127       -0.213684   1.003290
  128       -0.166524   1.007641
  129       -0.127177   1.013780
  130       -0.094836   1.020526
  131       -0.005443   1.035416
  132        0.098358   0.956154
  133        0.212951   0.597881
  134        0.247276   0.453456
  135        0.306201   0.223154
  136        0.365820   0.059684
  137        0.453641  -0.031955
  138        0.500653  -0.034186
  139        0.541711  -0.026421
  140        0.616667  -0.010829
  141        0.654854  -0.005852
  142        0.736666  -0.001147
  143        0.845836  -0.000071
  144        0.902005  -0.000013
  145        0.972622  -0.000001
  146        1.006203  -0.000000
  147        1.086591  -0.000000
  148        1.128702  -0.000000
  149        1.159136  -0.000000
  150        1.245662  -0.000000
  151        1.270251  -0.000000
  152        1.298189  -0.000000
  153        1.338270  -0.000000
  154        1.364685  -0.000000
  155        1.395780  -0.000000
  156        1.433510  -0.000000
  157        1.466742  -0.000000
  158        1.501977  -0.000000
  159        1.522054  -0.000000
  160        1.556708  -0.000000
  161        1.580336  -0.000000
  162        1.634610  -0.000000
  163        1.672107  -0.000000
  164        1.693061  -0.000000
  165        1.751791  -0.000000
  166        1.779144  -0.000000
  167        1.813383  -0.000000
  168        1.838391  -0.000000
  169        1.890842  -0.000000
  170        1.924859  -0.000000
  171        1.989665  -0.000000
  172        2.036295  -0.000000
  173        2.093404  -0.000000
  174        2.142379  -0.000000
  175        2.208857  -0.000000
  176        2.353737  -0.000000

  0.4000000E+00  0.1111111E+00  0.1262379E-14  0.4444444E-01
    1      -13.676202   1.000000
    2      -13.318589   1.000000
    3      -12.462144   1.000000
    4      -12.139518   1.000000
    5      -11.817546   1.000000
    6      -11.675247   1.000000
    7      -11.576539   1.000000
    8      -11.314891   1.000000
    9      -11.162567   1.000000
   10      -11.038874   1.000000
   11      -10.986316   1.000000