 running on   72 total cores
 distrk:  each k-point on   72 cores,    1 groups
 distr:  one band on    9 cores,    8 groups
 using from now: INCAR     
 vasp.5.4.4.18Apr17-6-g9f103f2a35 (build Dec  7 2020 12:43:57) complex           
 POSCAR found type information on POSCAR  Mo V  B  H 
 POSCAR found :  4 types and      72 ions
 scaLAPACK will be used

 ----------------------------------------------------------------------------- 
|                                                                             |
|  ADVICE TO THIS USER RUNNING 'VASP/VAMP'   (HEAR YOUR MASTER'S VOICE ...):  |
|                                                                             |
|      You enforced a specific xc-type in the INCAR file,                     |
|      a different type was found on the POTCAR file                          |
|          I HOPE YOU KNOW, WHAT YOU ARE  DOING                               |
|                                                                             |
 ----------------------------------------------------------------------------- 

 LDA part: xc-table for Pade appr. of Perdew
 POSCAR, INCAR and KPOINTS ok, starting setup
 resort distribution
 resort distribution
 resort distribution
 resort distribution
 resort distribution
 resort distribution
 resort distribution
 resort distribution
 resort distribution
 resort distribution
 resort distribution
 resort distribution
 resort distribution
 resort distribution
 resort distribution
 resort distribution
 resort distribution
 resort distribution
 resort distribution
 resort distribution
 resort distribution
 resort distribution
 resort distribution
 resort distribution
 resort distribution
 resort distribution
 resort distribution
 resort distribution
 resort distribution
 resort distribution
 resort distribution
 resort distribution
 resort distribution
 resort distribution
 resort distribution
 resort distribution
 resort distribution
 resort distribution
 resort distribution
 resort distribution
 resort distribution
 resort distribution
 resort distribution
 resort distribution
 resort distribution
 resort distribution
 resort distribution
 resort distribution
 resort distribution
 resort distribution
 resort distribution
 resort distribution
 resort distribution
 resort distribution
 resort distribution
 resort distribution
 resort distribution
 resort distribution
 resort distribution
 resort distribution
 resort distribution
 resort distribution
 resort distribution
 resort distribution
 resort distribution
 resort distribution
 resort distribution
 resort distribution
 resort distribution
 resort distribution
 resort distribution
 resort distribution
 FFT: planning ...
 WAVECAR not read
 augmentation electrons   267.05815917307388     
 soft         electrons   0.0000000000000000     
 augmentation electrons   267.05815917307388     
 soft         electrons   0.0000000000000000     
 augmentation electrons   267.05815917307388     
 soft         electrons   0.0000000000000000     
 augmentation electrons   267.05815917307388     
 soft         electrons   0.0000000000000000     
 augmentation electrons   267.05815917307388     
 soft         electrons   0.0000000000000000     
 augmentation electrons   267.05815917307388     
 soft         electrons   0.0000000000000000     
 augmentation electrons   267.05815917307388     
 soft         electrons   0.0000000000000000     
 augmentation electrons   267.05815917307388     
 soft         electrons   0.0000000000000000     
 augmentation electrons   267.05815917307388     
 soft         electrons   0.0000000000000000     
 augmentation electrons   267.05815917307388     
 soft         electrons   0.0000000000000000     
 augmentation electrons   267.05815917307388     
 soft         electrons   0.0000000000000000     
 augmentation electrons   267.05815917307388     
 soft         electrons   0.0000000000000000     
 augmentation electrons   267.05815917307388     
 soft         electrons   0.0000000000000000     
 augmentation electrons   267.05815917307388     
 soft         electrons   0.0000000000000000     
 augmentation electrons   267.05815917307388     
 soft         electrons   0.0000000000000000     
 augmentation electrons   267.05815917307388     
 soft         electrons   0.0000000000000000     
 augmentation electrons   267.05815917307388     
 soft         electrons   0.0000000000000000     
 augmentation electrons   267.05815917307388     
 soft         electrons   0.0000000000000000     
 augmentation electrons   267.05815917307388     
 soft         electrons   0.0000000000000000     
 augmentation electrons   267.05815917307388     
 soft         electrons   0.0000000000000000     
 augmentation electrons   267.05815917307388     
 soft         electrons   0.0000000000000000     
 augmentation electrons   267.05815917307388     
 soft         electrons   0.0000000000000000     
 augmentation electrons   267.05815917307388     
 soft         electrons   0.0000000000000000     
 augmentation electrons   267.05815917307388     
 soft         electrons   0.0000000000000000     
 augmentation electrons   267.05815917307388     
 soft         electrons   0.0000000000000000     
 augmentation electrons   267.05815917307388     
 soft         electrons   0.0000000000000000     
 augmentation electrons   267.05815917307388     
 soft         electrons   0.0000000000000000     
 augmentation electrons   267.05815917307388     
 soft         electrons   0.0000000000000000     
 augmentation electrons   267.05815917307388     
 soft         electrons   0.0000000000000000     
 augmentation electrons   267.05815917307388     
 soft         electrons   0.0000000000000000     
 augmentation electrons   267.05815917307388     
 soft         electrons   0.0000000000000000     
 augmentation electrons   267.05815917307388     
 soft         electrons   0.0000000000000000     
 augmentation electrons   267.05815917307388     
 soft         electrons   0.0000000000000000     
 augmentation electrons   267.05815917307388     
 soft         electrons   0.0000000000000000     
 augmentation electrons   267.05815917307388     
 soft         electrons   0.0000000000000000     
 augmentation electrons   267.05815917307388     
 soft         electrons   0.0000000000000000     
 augmentation electrons   267.05815917307388     
 soft         electrons   0.0000000000000000     
 augmentation electrons   267.05815917307388     
 soft         electrons   0.0000000000000000     
 augmentation electrons   267.05815917307388     
 soft         electrons   0.0000000000000000     
 augmentation electrons   267.05815917307388     
 soft         electrons   0.0000000000000000     
 augmentation electrons   267.05815917307388     
 soft         electrons   0.0000000000000000     
 augmentation electrons   267.05815917307388     
 soft         electrons   0.0000000000000000     
 augmentation electrons   267.05815917307388     
 soft         electrons   0.0000000000000000     
 augmentation electrons   267.05815917307388     
 soft         electrons   0.0000000000000000     
 augmentation electrons   267.05815917307388     
 soft         electrons   0.0000000000000000     
 augmentation electrons   267.05815917307388     
 soft         electrons   0.0000000000000000     
 augmentation electrons   267.05815917307388     
 soft         electrons   0.0000000000000000     
 augmentation electrons   267.05815917307388     
 soft         electrons   0.0000000000000000     
 augmentation electrons   267.05815917307388     
 soft         electrons   0.0000000000000000     
 augmentation electrons   267.05815917307388     
 soft         electrons   0.0000000000000000     
 augmentation electrons   267.05815917307388     
 soft         electrons   0.0000000000000000     
 augmentation electrons   267.05815917307388     
 soft         electrons   0.0000000000000000     
 augmentation electrons   267.05815917307388     
 soft         electrons   0.0000000000000000     
 augmentation electrons   267.05815917307388     
 soft         electrons   0.0000000000000000     
 augmentation electrons   267.05815917307388     
 soft         electrons   0.0000000000000000     
 augmentation electrons   267.05815917307388     
 soft         electrons   0.0000000000000000     
 augmentation electrons   267.05815917307388     
 augmentation electrons   267.05815917307388     
 soft         electrons   0.0000000000000000     
 augmentation electrons   267.05815917307388     
 soft         electrons   0.0000000000000000     
 augmentation electrons   267.05815917307388     
 soft         electrons   0.0000000000000000     
 augmentation electrons   267.05815917307388     
 soft         electrons   0.0000000000000000     
 augmentation electrons   267.05815917307388     
 soft         electrons   0.0000000000000000     
 augmentation electrons   267.05815917307388     
 soft         electrons   0.0000000000000000     
 augmentation electrons   267.05815917307388     
 soft         electrons   0.0000000000000000     
 augmentation electrons   267.05815917307388     
 soft         electrons   0.0000000000000000     
 augmentation electrons   267.05815917307388     
 soft         electrons   0.0000000000000000     
 augmentation electrons   267.05815917307388     
 soft         electrons   0.0000000000000000     
 augmentation electrons   267.05815917307388     
 soft         electrons   0.0000000000000000     
 augmentation electrons   267.05815917307388     
 soft         electrons   0.0000000000000000     
 augmentation electrons   267.05815917307388     
 soft         electrons   0.0000000000000000     
 augmentation electrons   267.05815917307388     
 soft         electrons   0.0000000000000000     
 soft         electrons   0.0000000000000000     
 augmentation electrons   267.05815917307388     
 soft         electrons   0.0000000000000000     
 total        electrons   267.05815917307388     
 total        electrons   267.05815917307388     
 total        electrons   267.05815917307388     
 total        electrons   267.05815917307388     
 total        electrons   267.05815917307388     
 total        electrons   267.05815917307388     
 total        electrons   267.05815917307388     
 total        electrons   267.05815917307388     
 total        electrons   267.05815917307388     
 total        electrons   267.05815917307388     
 total        electrons   267.05815917307388     
 total        electrons   267.05815917307388     
 total        electrons   267.05815917307388     
 total        electrons   267.05815917307388     
 total        electrons   267.05815917307388     
 total        electrons   267.05815917307388     
 total        electrons   267.05815917307388     
 total        electrons   267.05815917307388     
 total        electrons   267.05815917307388     
 total        electrons   267.05815917307388     
 total        electrons   267.05815917307388     
 total        electrons   267.05815917307388     
 total        electrons   267.05815917307388     
 total        electrons   267.05815917307388     
 total        electrons   267.05815917307388     
 total        electrons   267.05815917307388     
 total        electrons   267.05815917307388     
 total        electrons   267.05815917307388     
 total        electrons   267.05815917307388     
 total        electrons   267.05815917307388     
 total        electrons   267.05815917307388     
 total        electrons   267.05815917307388     
 total        electrons   267.05815917307388     
 total        electrons   267.05815917307388     
 total        electrons   267.05815917307388     
 total        electrons   267.05815917307388     
 total        electrons   267.05815917307388     
 total        electrons   267.05815917307388     
 total        electrons   267.05815917307388     
 total        electrons   267.05815917307388     
 total        electrons   267.05815917307388     
 total        electrons   267.05815917307388     
 total        electrons   267.05815917307388     
 total        electrons   267.05815917307388     
 total        electrons   267.05815917307388     
 total        electrons   267.05815917307388     
 total        electrons   267.05815917307388     
 total        electrons   267.05815917307388     
 total        electrons   267.05815917307388     
 total        electrons   267.05815917307388     
 total        electrons   267.05815917307388     
 total        electrons   267.05815917307388     
 total        electrons   267.05815917307388     
 total        electrons   267.05815917307388     
 total        electrons   267.05815917307388     
 total        electrons   267.05815917307388     
 total        electrons   267.05815917307388     
 total        electrons   267.05815917307388     
 total        electrons   267.05815917307388     
 total        electrons   267.05815917307388     
 total        electrons   267.05815917307388     
 total        electrons   267.05815917307388     
 total        electrons   267.05815917307388     
 total        electrons   267.05815917307388     
 total        electrons   267.05815917307388     
 total        electrons   267.05815917307388     
 total        electrons   267.05815917307388     
 total        electrons   267.05815917307388     
 total        electrons   267.05815917307388     
 total        electrons   267.05815917307388     
 total        electrons   267.05815917307388     
 total        electrons   267.05815917307388     
 augmentation electrons   1134.5113766423656     
 soft         electrons   0.0000000000000000     
 augmentation electrons   1134.5113766423656     
 soft         electrons   0.0000000000000000     
 augmentation electrons   1134.5113766423656     
 soft         electrons   0.0000000000000000     
 augmentation electrons   1134.5113766423656     
 soft         electrons   0.0000000000000000     
 augmentation electrons   1134.5113766423656     
 soft         electrons   0.0000000000000000     
 augmentation electrons   1134.5113766423656     
 soft         electrons   0.0000000000000000     
 augmentation electrons   1134.5113766423656     
 soft         electrons   0.0000000000000000     
 augmentation electrons   1134.5113766423656     
 soft         electrons   0.0000000000000000     
 augmentation electrons   1134.5113766423656     
 soft         electrons   0.0000000000000000     
 augmentation electrons   1134.5113766423656     
 soft         electrons   0.0000000000000000     
 augmentation electrons   1134.5113766423656     
 soft         electrons   0.0000000000000000     
 augmentation electrons   1134.5113766423656     
 soft         electrons   0.0000000000000000     
 augmentation electrons   1134.5113766423656     
 soft         electrons   0.0000000000000000     
 augmentation electrons   1134.5113766423656     
 soft         electrons   0.0000000000000000     
 augmentation electrons   1134.5113766423656     
 soft         electrons   0.0000000000000000     
 augmentation electrons   1134.5113766423656     
 soft         electrons   0.0000000000000000     
 augmentation electrons   1134.5113766423656     
 soft         electrons   0.0000000000000000     
 augmentation electrons   1134.5113766423656     
 soft         electrons   0.0000000000000000     
 augmentation electrons   1134.5113766423656     
 soft         electrons   0.0000000000000000     
 augmentation electrons   1134.5113766423656     
 soft         electrons   0.0000000000000000     
 augmentation electrons   1134.5113766423656     
 soft         electrons   0.0000000000000000     
 augmentation electrons   1134.5113766423656     
 soft         electrons   0.0000000000000000     
 augmentation electrons   1134.5113766423656     
 augmentation electrons   1134.5113766423656     
 soft         electrons   0.0000000000000000     
 augmentation electrons   1134.5113766423656     
 soft         electrons   0.0000000000000000     
 augmentation electrons   1134.5113766423656     
 soft         electrons   0.0000000000000000     
 augmentation electrons   1134.5113766423656     
 soft         electrons   0.0000000000000000     
 augmentation electrons   1134.5113766423656     
 soft         electrons   0.0000000000000000     
 augmentation electrons   1134.5113766423656     
 soft         electrons   0.0000000000000000     
 augmentation electrons   1134.5113766423656     
 soft         electrons   0.0000000000000000     
 augmentation electrons   1134.5113766423656     
 soft         electrons   0.0000000000000000     
 augmentation electrons   1134.5113766423656     
 soft         electrons   0.0000000000000000     
 augmentation electrons   1134.5113766423656     
 soft         electrons   0.0000000000000000     
 augmentation electrons   1134.5113766423656     
 soft         electrons   0.0000000000000000     
 augmentation electrons   1134.5113766423656     
 soft         electrons   0.0000000000000000     
 augmentation electrons   1134.5113766423656     
 soft         electrons   0.0000000000000000     
 augmentation electrons   1134.5113766423656     
 soft         electrons   0.0000000000000000     
 augmentation electrons   1134.5113766423656     
 soft         electrons   0.0000000000000000     
 augmentation electrons   1134.5113766423656     
 soft         electrons   0.0000000000000000     
 augmentation electrons   1134.5113766423656     
 soft         electrons   0.0000000000000000     
 augmentation electrons   1134.5113766423656     
 soft         electrons   0.0000000000000000     
 augmentation electrons   1134.5113766423656     
 soft         electrons   0.0000000000000000     
 augmentation electrons   1134.5113766423656     
 soft         electrons   0.0000000000000000     
 augmentation electrons   1134.5113766423656     
 soft         electrons   0.0000000000000000     
 augmentation electrons   1134.5113766423656     
 soft         electrons   0.0000000000000000     
 augmentation electrons   1134.5113766423656     
 soft         electrons   0.0000000000000000     
 augmentation electrons   1134.5113766423656     
 soft         electrons   0.0000000000000000     
 augmentation electrons   1134.5113766423656     
 soft         electrons   0.0000000000000000     
 augmentation electrons   1134.5113766423656     
 soft         electrons   0.0000000000000000     
 augmentation electrons   1134.5113766423656     
 soft         electrons   0.0000000000000000     
 augmentation electrons   1134.5113766423656     
 soft         electrons   0.0000000000000000     
 augmentation electrons   1134.5113766423656     
 soft         electrons   0.0000000000000000     
 augmentation electrons   1134.5113766423656     
 soft         electrons   0.0000000000000000     
 augmentation electrons   1134.5113766423656     
 soft         electrons   0.0000000000000000     
 augmentation electrons   1134.5113766423656     
 soft         electrons   0.0000000000000000     
 augmentation electrons   1134.5113766423656     
 soft         electrons   0.0000000000000000     
 augmentation electrons   1134.5113766423656     
 soft         electrons   0.0000000000000000     
 augmentation electrons   1134.5113766423656     
 soft         electrons   0.0000000000000000     
 augmentation electrons   1134.5113766423656     
 soft         electrons   0.0000000000000000     
 augmentation electrons   1134.5113766423656     
 soft         electrons   0.0000000000000000     
 augmentation electrons   1134.5113766423656     
 soft         electrons   0.0000000000000000     
 augmentation electrons   1134.5113766423656     
 soft         electrons   0.0000000000000000     
 augmentation electrons   1134.5113766423656     
 soft         electrons   0.0000000000000000     
 augmentation electrons   1134.5113766423656     
 soft         electrons   0.0000000000000000     
 augmentation electrons   1134.5113766423656     
 soft         electrons   0.0000000000000000     
 augmentation electrons   1134.5113766423656     
 soft         electrons   0.0000000000000000     
 augmentation electrons   1134.5113766423656     
 soft         electrons   0.0000000000000000     
 augmentation electrons   1134.5113766423656     
 soft         electrons   0.0000000000000000     
 augmentation electrons   1134.5113766423656     
 soft         electrons   0.0000000000000000     
 augmentation electrons   1134.5113766423656     
 soft         electrons   0.0000000000000000     
 augmentation electrons   1134.5113766423656     
 soft         electrons   0.0000000000000000     
 augmentation electrons   1134.5113766423656     
 soft         electrons   0.0000000000000000     
 soft         electrons   0.0000000000000000     
 total        electrons   1134.5113766423656     
 total        electrons   1134.5113766423656     
 total        electrons   1134.5113766423656     
 total        electrons   1134.5113766423656     
 total        electrons   1134.5113766423656     
 total        electrons   1134.5113766423656     
 total        electrons   1134.5113766423656     
 total        electrons   1134.5113766423656     
 total        electrons   1134.5113766423656     
 total        electrons   1134.5113766423656     
 total        electrons   1134.5113766423656     
 total        electrons   1134.5113766423656     
 total        electrons   1134.5113766423656     
 total        electrons   1134.5113766423656     
 total        electrons   1134.5113766423656     
 total        electrons   1134.5113766423656     
 total        electrons   1134.5113766423656     
 total        electrons   1134.5113766423656     
 total        electrons   1134.5113766423656     
 total        electrons   1134.5113766423656     
 total        electrons   1134.5113766423656     
 total        electrons   1134.5113766423656     
 total        electrons   1134.5113766423656     
 total        electrons   1134.5113766423656     
 total        electrons   1134.5113766423656     
 total        electrons   1134.5113766423656     
 total        electrons   1134.5113766423656     
 total        electrons   1134.5113766423656     
 total        electrons   1134.5113766423656     
 total        electrons   1134.5113766423656     
 total        electrons   1134.5113766423656     
 total        electrons   1134.5113766423656     
 total        electrons   1134.5113766423656     
 total        electrons   1134.5113766423656     
 total        electrons   1134.5113766423656     
 total        electrons   1134.5113766423656     
 total        electrons   1134.5113766423656     
 total        electrons   1134.5113766423656     
 total        electrons   1134.5113766423656     
 total        electrons   1134.5113766423656     
 total        electrons   1134.5113766423656     
 total        electrons   1134.5113766423656     
 total        electrons   1134.5113766423656     
 total        electrons   1134.5113766423656     
 total        electrons   1134.5113766423656     
 total        electrons   1134.5113766423656     
 total        electrons   1134.5113766423656     
 total        electrons   1134.5113766423656     
 total        electrons   1134.5113766423656     
 total        electrons   1134.5113766423656     
 total        electrons   1134.5113766423656     
 total        electrons   1134.5113766423656     
 total        electrons   1134.5113766423656     
 total        electrons   1134.5113766423656     
 total        electrons   1134.5113766423656     
 total        electrons   1134.5113766423656     
 total        electrons   1134.5113766423656     
 total        electrons   1134.5113766423656     
 total        electrons   1134.5113766423656     
 total        electrons   1134.5113766423656     
 total        electrons   1134.5113766423656     
 total        electrons   1134.5113766423656     
 total        electrons   1134.5113766423656     
 total        electrons   1134.5113766423656     
 total        electrons   1134.5113766423656     
 total        electrons   1134.5113766423656     
 total        electrons   1134.5113766423656     
 total        electrons   1134.5113766423656     
 total        electrons   1134.5113766423656     
 total        electrons   1134.5113766423656     
 total        electrons   1134.5113766423656     
 total        electrons   1134.5113766423656     
 entering main loop
       N       E                     dE             d eps       ncg     rms          rms(c)
DAV:   1     0.231298417920E+04    0.23130E+04   -0.95304E+04  8096   0.123E+03
DAV:   2    -0.192579775047E+03   -0.25056E+04   -0.23261E+04  9424   0.302E+02
DAV:   3    -0.598645098879E+03   -0.40607E+03   -0.38668E+03 11416   0.142E+02
DAV:   4    -0.631794513670E+03   -0.33149E+02   -0.31756E+02 13088   0.453E+01
DAV:   5    -0.633690862684E+03   -0.18963E+01   -0.18341E+01 13752   0.105E+01    0.136E+02
DAV:   6    -0.587286482310E+03    0.46404E+02   -0.97605E+02 13048   0.876E+01    0.110E+02
DAV:   7    -0.635234362351E+03   -0.47948E+02   -0.26421E+03 14792   0.351E+02    0.536E+01
DAV:   8    -0.572498462737E+03    0.62736E+02   -0.33694E+02 13304   0.541E+01    0.422E+01
DAV:   9    -0.543860387307E+03    0.28638E+02   -0.54840E+01 13144   0.275E+01    0.298E+01
DAV:  10    -0.535796510151E+03    0.80639E+01   -0.28896E+01 13272   0.155E+01    0.248E+01
DAV:  11    -0.533754277662E+03    0.20422E+01   -0.84255E+00 12560   0.108E+01    0.221E+01
DAV:  12    -0.533813115595E+03   -0.58838E-01   -0.42008E+00 12848   0.820E+00    0.216E+01
DAV:  13    -0.532784201656E+03    0.10289E+01   -0.86992E-01 12832   0.366E+00    0.198E+01
DAV:  14    -0.532065597490E+03    0.71860E+00   -0.62614E-01 12800   0.353E+00    0.180E+01
DAV:  15    -0.531438764152E+03    0.62683E+00   -0.12998E+00 12864   0.438E+00    0.143E+01
DAV:  16    -0.530304624324E+03    0.11341E+01   -0.29122E+00 12720   0.729E+00    0.920E+00
DAV:  17    -0.529871440608E+03    0.43318E+00   -0.21137E+00 12744   0.678E+00    0.549E+00
DAV:  18    -0.529853569867E+03    0.17871E-01   -0.49633E-01 12736   0.300E+00    0.420E+00
DAV:  19    -0.529827153857E+03    0.26416E-01   -0.43031E-01 12760   0.318E+00    0.338E+00
DAV:  20    -0.529742590338E+03    0.84564E-01   -0.70445E-01 12664   0.378E+00    0.210E+00
DAV:  21    -0.529719089629E+03    0.23501E-01   -0.11121E-01 12576   0.136E+00    0.106E+00
DAV:  22    -0.529716614431E+03    0.24752E-02   -0.64168E-02 12520   0.115E+00    0.786E-01
DAV:  23    -0.529712947622E+03    0.36668E-02   -0.71075E-02 12792   0.127E+00    0.624E-01
DAV:  24    -0.529708982085E+03    0.39655E-02   -0.10926E-02 12488   0.467E-01    0.314E-01
DAV:  25    -0.529708200156E+03    0.78193E-03   -0.40513E-03 12424   0.309E-01    0.150E-01
DAV:  26    -0.529708254501E+03   -0.54345E-04   -0.99406E-04 12976   0.143E-01    0.916E-02
DAV:  27    -0.529708516415E+03   -0.26191E-03   -0.79599E-04 12584   0.981E-02    0.881E-02
DAV:  28    -0.529708883313E+03   -0.36690E-03   -0.38000E-04 10880   0.559E-02    0.110E-01
DAV:  29    -0.529709043092E+03   -0.15978E-03   -0.40650E-04 12464   0.878E-02    0.263E-02
DAV:  30    -0.529709687088E+03   -0.64400E-03   -0.56770E-04 12168   0.817E-02    0.972E-02
DAV:  31    -0.529709803904E+03   -0.11682E-03   -0.41161E-04 12728   0.915E-02    0.195E-02
DAV:  32    -0.529709938189E+03   -0.13428E-03   -0.26007E-04 12320   0.632E-02    0.570E-02
DAV:  33    -0.529709945767E+03   -0.75776E-05   -0.18585E-04 12792   0.597E-02    0.179E-02
DAV:  34    -0.529709991727E+03   -0.45960E-04   -0.16793E-05  9152   0.973E-03    0.173E-02
DAV:  35    -0.529710099407E+03   -0.10768E-03   -0.50640E-06  7544   0.601E-03    0.155E-02
DAV:  36    -0.529710186279E+03   -0.86872E-04   -0.41157E-06  7568   0.674E-03    0.936E-03
DAV:  37    -0.529710253134E+03   -0.66854E-04   -0.27538E-06  7392   0.353E-03    0.105E-02
DAV:  38    -0.529710322343E+03   -0.69209E-04   -0.10979E-05  9328   0.131E-02    0.549E-03
DAV:  39    -0.529710395445E+03   -0.73102E-04   -0.66218E-06  7776   0.611E-03    0.385E-03
DAV:  40    -0.529710407979E+03   -0.12534E-04   -0.13123E-06  6984   0.536E-03    0.377E-03
DAV:  41    -0.529710412609E+03   -0.46294E-05   -0.76122E-07  4760   0.496E-03    0.209E-03
DAV:  42    -0.529710417377E+03   -0.47688E-05   -0.48068E-07  5528   0.151E-03    0.789E-04
DAV:  43    -0.529710419280E+03   -0.19024E-05   -0.24283E-07  4616   0.193E-03    0.138E-03
DAV:  44    -0.529710419894E+03   -0.61455E-06   -0.13931E-07  4600   0.137E-03
   1 F= -.52971042E+03 E0= -.52970582E+03  d E =-.137932E-01
 augmentation electrons   27.800854181533666     
 soft         electrons   239.31954014777915     
 augmentation electrons   27.800854181533666     
 soft         electrons   239.31954014777915     
 augmentation electrons   27.800854181533666     
 soft         electrons   239.31954014777915     
 augmentation electrons   27.800854181533666     
 soft         electrons   239.31954014777915     
 augmentation electrons   27.800854181533666     
 soft         electrons   239.31954014777915     
 augmentation electrons   27.800854181533666     
 soft         electrons   239.31954014777915     
 augmentation electrons   27.800854181533666     
 soft         electrons   239.31954014777915     
 augmentation electrons   27.800854181533666     
 soft         electrons   239.31954014777915     
 augmentation electrons   27.800854181533666     
 soft         electrons   239.31954014777915     
 augmentation electrons   27.800854181533666     
 soft         electrons   239.31954014777915     
 augmentation electrons   27.800854181533666     
 soft         electrons   239.31954014777915     
 augmentation electrons   27.800854181533666     
 soft         electrons   239.31954014777915     
 augmentation electrons   27.800854181533666     
 soft         electrons   239.31954014777915     
 augmentation electrons   27.800854181533666     
 soft         electrons   239.31954014777915     
 augmentation electrons   27.800854181533666     
 soft         electrons   239.31954014777915     
 augmentation electrons   27.800854181533666     
 soft         electrons   239.31954014777915     
 augmentation electrons   27.800854181533666     
 soft         electrons   239.31954014777915     
 augmentation electrons   27.800854181533666     
 soft         electrons   239.31954014777915     
 augmentation electrons   27.800854181533666     
 soft         electrons   239.31954014777915     
 augmentation electrons   27.800854181533666     
 soft         electrons   239.31954014777915     
 augmentation electrons   27.800854181533666     
 soft         electrons   239.31954014777915     
 augmentation electrons   27.800854181533666     
 soft         electrons   239.31954014777915     
 augmentation electrons   27.800854181533666     
 soft         electrons   239.31954014777915     
 augmentation electrons   27.800854181533666     
 soft         electrons   239.31954014777915     
 augmentation electrons   27.800854181533666     
 soft         electrons   239.31954014777915     
 augmentation electrons   27.800854181533666     
 soft         electrons   239.31954014777915     
 augmentation electrons   27.800854181533666     
 soft         electrons   239.31954014777915     
 augmentation electrons   27.800854181533666     
 soft         electrons   239.31954014777915     
 augmentation electrons   27.800854181533666     
 soft         electrons   239.31954014777915     
 augmentation electrons   27.800854181533666     
 soft         electrons   239.31954014777915     
 augmentation electrons   27.800854181533666     
 soft         electrons   239.31954014777915     
 augmentation electrons   27.800854181533666     
 soft         electrons   239.31954014777915     
 augmentation electrons   27.800854181533666     
 soft         electrons   239.31954014777915     
 augmentation electrons   27.800854181533666     
 soft         electrons   239.31954014777915     
 augmentation electrons   27.800854181533666     
 soft         electrons   239.31954014777915     
 augmentation electrons   27.800854181533666     
 soft         electrons   239.31954014777915     
 augmentation electrons   27.800854181533666     
 soft         electrons   239.31954014777915     
 augmentation electrons   27.800854181533666     
 soft         electrons   239.31954014777915     
 augmentation electrons   27.800854181533666     
 soft         electrons   239.31954014777915     
 augmentation electrons   27.800854181533666     
 soft         electrons   239.31954014777915     
 augmentation electrons   27.800854181533666     
 soft         electrons   239.31954014777915     
 augmentation electrons   27.800854181533666     
 soft         electrons   239.31954014777915     
 augmentation electrons   27.800854181533666     
 soft         electrons   239.31954014777915     
 augmentation electrons   27.800854181533666     
 soft         electrons   239.31954014777915     
 augmentation electrons   27.800854181533666     
 soft         electrons   239.31954014777915     
 augmentation electrons   27.800854181533666     
 soft         electrons   239.31954014777915     
 augmentation electrons   27.800854181533666     
 soft         electrons   239.31954014777915     
 augmentation electrons   27.800854181533666     
 soft         electrons   239.31954014777915     
 augmentation electrons   27.800854181533666     
 soft         electrons   239.31954014777915     
 augmentation electrons   27.800854181533666     
 soft         electrons   239.31954014777915     
 augmentation electrons   27.800854181533666     
 soft         electrons   239.31954014777915     
 augmentation electrons   27.800854181533666     
 augmentation electrons   27.800854181533666     
 soft         electrons   239.31954014777915     
 augmentation electrons   27.800854181533666     
 soft         electrons   239.31954014777915     
 augmentation electrons   27.800854181533666     
 soft         electrons   239.31954014777915     
 augmentation electrons   27.800854181533666     
 soft         electrons   239.31954014777915     
 augmentation electrons   27.800854181533666     
 soft         electrons   239.31954014777915     
 augmentation electrons   27.800854181533666     
 soft         electrons   239.31954014777915     
 augmentation electrons   27.800854181533666     
 soft         electrons   239.31954014777915     
 augmentation electrons   27.800854181533666     
 soft         electrons   239.31954014777915     
 augmentation electrons   27.800854181533666     
 soft         electrons   239.31954014777915     
 augmentation electrons   27.800854181533666     
 soft         electrons   239.31954014777915     
 augmentation electrons   27.800854181533666     
 soft         electrons   239.31954014777915     
 augmentation electrons   27.800854181533666     
 soft         electrons   239.31954014777915     
 augmentation electrons   27.800854181533666     
 soft         electrons   239.31954014777915     
 augmentation electrons   27.800854181533666     
 soft         electrons   239.31954014777915     
 augmentation electrons   27.800854181533666     
 soft         electrons   239.31954014777915     
 augmentation electrons   27.800854181533666     
 soft         electrons   239.31954014777915     
 augmentation electrons   27.800854181533666     
 soft         electrons   239.31954014777915     
 augmentation electrons   27.800854181533666     
 soft         electrons   239.31954014777915     
 augmentation electrons   27.800854181533666     
 soft         electrons   239.31954014777915     
 augmentation electrons   27.800854181533666     
 soft         electrons   239.31954014777915     
 soft         electrons   239.31954014777915     
 total        electrons   267.12039432931283     
 total        electrons   267.12039432931283     
 total        electrons   267.12039432931283     
 total        electrons   267.12039432931283     
 total        electrons   267.12039432931283     
 total        electrons   267.12039432931283     
 total        electrons   267.12039432931283     
 total        electrons   267.12039432931283     
 total        electrons   267.12039432931283     
 total        electrons   267.12039432931283     
 total        electrons   267.12039432931283     
 total        electrons   267.12039432931283     
 total        electrons   267.12039432931283     
 total        electrons   267.12039432931283     
 total        electrons   267.12039432931283     
 total        electrons   267.12039432931283     
 total        electrons   267.12039432931283     
 total        electrons   267.12039432931283     
 total        electrons   267.12039432931283     
 total        electrons   267.12039432931283     
 total        electrons   267.12039432931283     
 total        electrons   267.12039432931283     
 total        electrons   267.12039432931283     
 total        electrons   267.12039432931283     
 total        electrons   267.12039432931283     
 total        electrons   267.12039432931283     
 total        electrons   267.12039432931283     
 total        electrons   267.12039432931283     
 total        electrons   267.12039432931283     
 total        electrons   267.12039432931283     
 total        electrons   267.12039432931283     
 total        electrons   267.12039432931283     
 total        electrons   267.12039432931283     
 total        electrons   267.12039432931283     
 total        electrons   267.12039432931283     
 total        electrons   267.12039432931283     
 total        electrons   267.12039432931283     
 total        electrons   267.12039432931283     
 total        electrons   267.12039432931283     
 total        electrons   267.12039432931283     
 total        electrons   267.12039432931283     
 total        electrons   267.12039432931283     
 total        electrons   267.12039432931283     
 total        electrons   267.12039432931283     
 total        electrons   267.12039432931283     
 total        electrons   267.12039432931283     
 total        electrons   267.12039432931283     
 total        electrons   267.12039432931283     
 total        electrons   267.12039432931283     
 total        electrons   267.12039432931283     
 total        electrons   267.12039432931283     
 total        electrons   267.12039432931283     
 total        electrons   267.12039432931283     
 total        electrons   267.12039432931283     
 total        electrons   267.12039432931283     
 total        electrons   267.12039432931283     
 total        electrons   267.12039432931283     
 total        electrons   267.12039432931283     
 total        electrons   267.12039432931283     
 total        electrons   267.12039432931283     
 total        electrons   267.12039432931283     
 total        electrons   267.12039432931283     
 total        electrons   267.12039432931283     
 total        electrons   267.12039432931283     
 total        electrons   267.12039432931283     
 total        electrons   267.12039432931283     
 total        electrons   267.12039432931283     
 total        electrons   267.12039432931283     
 total        electrons   267.12039432931283     
 total        electrons   267.12039432931283     
 total        electrons   267.12039432931283     
 total        electrons   267.12039432931283     
Note: The following floating-point exceptions are signalling: IEEE_OVERFLOW_FLAG
Note: The following floating-point exceptions are signalling: IEEE_OVERFLOW_FLAG
Note: The following floating-point exceptions are signalling: IEEE_OVERFLOW_FLAG
Note: The following floating-point exceptions are signalling: IEEE_OVERFLOW_FLAG
Note: The following floating-point exceptions are signalling: IEEE_OVERFLOW_FLAG
Note: The following floating-point exceptions are signalling: IEEE_OVERFLOW_FLAG
Note: The following floating-point exceptions are signalling: IEEE_OVERFLOW_FLAG
Note: The following floating-point exceptions are signalling: IEEE_OVERFLOW_FLAG
Note: The following floating-point exceptions are signalling: IEEE_OVERFLOW_FLAG
Note: The following floating-point exceptions are signalling: IEEE_OVERFLOW_FLAG
Note: The following floating-point exceptions are signalling: IEEE_OVERFLOW_FLAG
Note: The following floating-point exceptions are signalling: IEEE_OVERFLOW_FLAG
Note: The following floating-point exceptions are signalling: IEEE_OVERFLOW_FLAG
Note: The following floating-point exceptions are signalling: IEEE_OVERFLOW_FLAG
Note: The following floating-point exceptions are signalling: IEEE_OVERFLOW_FLAG
Note: The following floating-point exceptions are signalling: IEEE_OVERFLOW_FLAG
Note: The following floating-point exceptions are signalling: IEEE_OVERFLOW_FLAG
Note: The following floating-point exceptions are signalling: IEEE_OVERFLOW_FLAG
Note: The following floating-point exceptions are signalling: IEEE_OVERFLOW_FLAG
Note: The following floating-point exceptions are signalling: IEEE_OVERFLOW_FLAG
Note: The following floating-point exceptions are signalling: IEEE_OVERFLOW_FLAG
Note: The following floating-point exceptions are signalling: IEEE_OVERFLOW_FLAG
Note: The following floating-point exceptions are signalling: IEEE_OVERFLOW_FLAG
Note: The following floating-point exceptions are signalling: IEEE_OVERFLOW_FLAG
Note: The following floating-point exceptions are signalling: IEEE_OVERFLOW_FLAG
Note: The following floating-point exceptions are signalling: IEEE_OVERFLOW_FLAG
Note: The following floating-point exceptions are signalling: IEEE_OVERFLOW_FLAG
Note: The following floating-point exceptions are signalling: IEEE_OVERFLOW_FLAG
Note: The following floating-point exceptions are signalling: IEEE_OVERFLOW_FLAG
Note: The following floating-point exceptions are signalling: IEEE_OVERFLOW_FLAG
Note: The following floating-point exceptions are signalling: IEEE_OVERFLOW_FLAG
Note: The following floating-point exceptions are signalling: IEEE_OVERFLOW_FLAG
Note: The following floating-point exceptions are signalling: IEEE_OVERFLOW_FLAG
Note: The following floating-point exceptions are signalling: IEEE_OVERFLOW_FLAG
Note: The following floating-point exceptions are signalling: IEEE_OVERFLOW_FLAG
Note: The following floating-point exceptions are signalling: IEEE_OVERFLOW_FLAG
Note: The following floating-point exceptions are signalling: IEEE_OVERFLOW_FLAG
Note: The following floating-point exceptions are signalling: IEEE_OVERFLOW_FLAG
Note: The following floating-point exceptions are signalling: IEEE_OVERFLOW_FLAG
Note: The following floating-point exceptions are signalling: IEEE_OVERFLOW_FLAG
Note: The following floating-point exceptions are signalling: IEEE_OVERFLOW_FLAG
Note: The following floating-point exceptions are signalling: IEEE_OVERFLOW_FLAG
Note: The following floating-point exceptions are signalling: IEEE_OVERFLOW_FLAG
Note: The following floating-point exceptions are signalling: IEEE_OVERFLOW_FLAG
Note: The following floating-point exceptions are signalling: IEEE_OVERFLOW_FLAG
Note: The following floating-point exceptions are signalling: IEEE_OVERFLOW_FLAG
Note: The following floating-point exceptions are signalling: IEEE_OVERFLOW_FLAG
Note: The following floating-point exceptions are signalling: IEEE_OVERFLOW_FLAG
Note: The following floating-point exceptions are signalling: IEEE_OVERFLOW_FLAG
Note: The following floating-point exceptions are signalling: IEEE_OVERFLOW_FLAG
Note: The following floating-point exceptions are signalling: IEEE_OVERFLOW_FLAG
Note: The following floating-point exceptions are signalling: IEEE_OVERFLOW_FLAG
Note: The following floating-point exceptions are signalling: IEEE_OVERFLOW_FLAG
Note: The following floating-point exceptions are signalling: IEEE_OVERFLOW_FLAG
Note: The following floating-point exceptions are signalling: IEEE_OVERFLOW_FLAG
Note: The following floating-point exceptions are signalling: IEEE_OVERFLOW_FLAG
Note: The following floating-point exceptions are signalling: IEEE_OVERFLOW_FLAG
Note: The following floating-point exceptions are signalling: IEEE_OVERFLOW_FLAG
Note: The following floating-point exceptions are signalling: IEEE_OVERFLOW_FLAG
Note: The following floating-point exceptions are signalling: IEEE_OVERFLOW_FLAG
Note: The following floating-point exceptions are signalling: IEEE_OVERFLOW_FLAG
Note: The following floating-point exceptions are signalling: IEEE_OVERFLOW_FLAG
Note: The following floating-point exceptions are signalling: IEEE_OVERFLOW_FLAG
Note: The following floating-point exceptions are signalling: IEEE_OVERFLOW_FLAG
Note: The following floating-point exceptions are signalling: IEEE_OVERFLOW_FLAG
Note: The following floating-point exceptions are signalling: IEEE_OVERFLOW_FLAG
Note: The following floating-point exceptions are signalling: IEEE_OVERFLOW_FLAG
Note: The following floating-point exceptions are signalling: IEEE_OVERFLOW_FLAG
Note: The following floating-point exceptions are signalling: IEEE_OVERFLOW_FLAG
Note: The following floating-point exceptions are signalling: IEEE_OVERFLOW_FLAG
Note: The following floating-point exceptions are signalling: IEEE_OVERFLOW_FLAG
Note: The following floating-point exceptions are signalling: IEEE_OVERFLOW_FLAG
