   58   58   85    1
  0.1225654E+02  0.6078000E-09  0.6078000E-09  0.2222000E-08  0.5000000E-15
   1.0000000000000000E-004
  CAR 
 Name                                    
    202     41    132

  0.3742002E-15  0.3742002E-15  0.1262379E-14  0.1234568E-01
    1      -11.012871   1.000000
    2      -10.434759   1.000000
    3       -9.731382   1.000000
    4       -9.085224   1.000000
    5       -8.141744   1.000000
    6       -8.035758   1.000000
    7       -7.669203   1.000000
    8       -7.527537   1.000000
    9       -7.289542   1.000000
   10       -7.238471   1.000000
   11       -7.231698   1.000000
   12       -7.149809   1.000000
   13       -7.126512   1.000000
   14       -7.075168   1.000000
   15       -7.003568   1.000000
   16       -6.866252   1.000000
   17       -6.818657   1.000000
   18       -6.817054   1.000000
   19       -6.705393   1.000000
   20       -6.612138   1.000000
   21       -6.441140   1.000000
   22       -6.385901   1.000000
   23       -6.189487   1.000000
   24       -5.623976   1.000000
   25       -5.548989   1.000000
   26       -5.386767   1.000000
   27       -5.347932   1.000000
   28       -5.295531   1.000000
   29       -5.221144   1.000000
   30       -5.128913   1.000000
   31       -4.953546   1.000000
   32       -4.166308   1.000000
   33       -4.029557   1.000000
   34       -4.013223   1.000000
   35       -4.004257   1.000000
   36       -3.876337   1.000000
   37       -3.748977   1.000000
   38       -2.994135   1.000000
   39       -2.763847   1.000000
   40       -2.697452   1.000000
   41       -2.574603   1.000000
   42       -2.236609   1.000000
   43       -2.232546   1.000000
   44       -2.051208   1.000000
   45       -1.965725   1.000000
   46       -1.936722   1.000000
   47       -1.907008   1.000000
   48       -1.867664   1.000000
   49       -1.720956   1.000000
   50       -1.502041   1.000000
   51       -1.467794   1.000000
   52       -1.462376   1.000000
   53       -1.387395   1.000000
   54       -1.284687   1.000000
   55       -1.156889   1.000000
   56       -1.155758   1.000000
   57       -1.147353   1.000000
   58       -1.119076   1.000000
   59       -1.006225   1.000000
   60       -0.963796   1.000000
   61       -0.899247   1.000000
   62       -0.852268   1.000000
   63       -0.797413   1.000000
   64       -0.680285   1.000000
   65       -0.569018   1.000000
   66       -0.551023   1.000000
   67       -0.525655   1.000000
   68       -0.505098   1.000000
   69       -0.320785   1.000000
   70       -0.292601   1.000000
   71       -0.258422   1.000000
   72       -0.176014   1.000000
   73       -0.120252   1.000000
   74       -0.036314   1.000000
   75        0.200227   1.000000
   76        0.258896   1.000000
   77        0.365025   1.000000
   78        0.432147   1.000000
   79        0.530590   1.000000
   80        0.551528   1.000000
   81        0.815950   1.000000
   82        0.864156   1.000000
   83        0.873774   1.000000
   84        1.139595   1.000000
   85        1.354540   1.000000
   86        1.481832   1.000000
   87        1.753048   1.000000
   88        1.765250   1.000000
   89        1.823699   1.000000
   90        1.833489   1.000000
   91        1.962228   1.000000
   92        2.035191   1.000000
   93        2.090122   1.000000
   94        2.122884   1.000000
   95        2.126813   1.000000
   96        2.249518   1.000000
   97        2.381475   1.000006
   98        2.494412   1.000180
   99        2.688117   1.010538
  100        3.157172   0.168217
  101        3.281455  -0.029970
  102        3.315620  -0.035458
  103        3.431233  -0.014263
  104        3.496956  -0.005082
  105        3.581110  -0.000908
  106        3.653186  -0.000150
  107        3.755682  -0.000007
  108        3.819631  -0.000001
  109        4.075256  -0.000000
  110        4.093700  -0.000000
  111        4.125265  -0.000000
  112        4.146821  -0.000000
  113        4.182145  -0.000000
  114        4.205245  -0.000000
  115        4.220175  -0.000000
  116        4.292711  -0.000000
  117        4.305013  -0.000000
  118        4.362374  -0.000000
  119        4.436742  -0.000000
  120        4.481555  -0.000000
  121        4.520849  -0.000000
  122        4.556469  -0.000000
  123        4.572205  -0.000000
  124        4.600769  -0.000000
  125        4.645279  -0.000000
  126        4.779567  -0.000000
  127        4.810258  -0.000000
  128        4.876154  -0.000000
  129        4.944054  -0.000000
  130        5.029453  -0.000000
  131        5.045658  -0.000000
  132        5.340042  -0.000000

  0.1111111E+00  0.3756941E-15  0.1262379E-14  0.2469136E-01
    1      -10.955585   1.000000
    2      -10.382104   1.000000
    3       -9.686709   1.000000
    4       -9.050795   1.000000
    5       -8.109783   1.000000
    6       -8.056748   1.000000
    7       -7.806319   1.000000
    8       -7.779749   1.000000
    9       -7.538795   1.000000
   10       -7.387041   1.000000
   11       -7.355480   1.000000
   12       -7.339304   1.000000
   13       -7.314240   1.000000
   14       -7.280248   1.000000
   15       -7.168447   1.000000
   16       -6.801473   1.000000
   17       -6.672237   1.000000
   18       -6.582528   1.000000
   19       -6.556142   1.000000
   20       -6.321164   1.000000
   21       -6.231944   1.000000
   22       -6.163491   1.000000
   23       -6.016231   1.000000
   24       -5.586475   1.000000
   25       -5.551431   1.000000
   26       -5.401574   1.000000
   27       -5.290025   1.000000
   28       -5.267054   1.000000
   29       -5.144070   1.000000
   30       -5.021234   1.000000
   31       -4.872891   1.000000
   32       -4.002283   1.000000
   33       -3.969350   1.000000
   34       -3.955300   1.000000
   35       -3.870170   1.000000
   36       -3.767850   1.000000
   37       -3.616650   1.000000
   38       -2.982136   1.000000
   39       -2.725003   1.000000
   40       -2.715247   1.000000
   41       -2.611628   1.000000
   42       -2.367833   1.000000
   43       -2.228013   1.000000
   44       -2.141555   1.000000
   45       -2.019347   1.000000
   46       -2.015388   1.000000
   47       -1.958397   1.000000
   48       -1.893258   1.000000
   49       -1.737210   1.000000
   50       -1.612583   1.000000
   51       -1.579561   1.000000
   52       -1.446967   1.000000
   53       -1.386426   1.000000
   54       -1.332177   1.000000
   55       -1.255497   1.000000
   56       -1.157192   1.000000
   57       -1.137580   1.000000
   58       -1.092102   1.000000
   59       -1.045538   1.000000
   60       -0.935079   1.000000
   61       -0.897165   1.000000
   62       -0.846494   1.000000
   63       -0.822657   1.000000
   64       -0.761238   1.000000
   65       -0.644146   1.000000
   66       -0.577035   1.000000
   67       -0.549929   1.000000
   68       -0.507271   1.000000
   69       -0.386543   1.000000
   70       -0.289477   1.000000
   71       -0.252583   1.000000
   72       -0.163173   1.000000
   73       -0.084916   1.000000
   74       -0.025259   1.000000
   75        0.045335   1.000000
   76        0.227006   1.000000
   77        0.341186   1.000000
   78        0.361091   1.000000
   79        0.453230   1.000000
   80        0.598032   1.000000
   81        0.669987   1.000000
   82        0.736634   1.000000
   83        0.924886   1.000000
   84        1.060223   1.000000
   85        1.247691   1.000000
   86        1.484392   1.000000
   87        1.585778   1.000000
   88        1.618475   1.000000
   89        1.709612   1.000000
   90        1.762350   1.000000
   91        1.865680   1.000000
   92        2.020104   1.000000
   93        2.031281   1.000000
   94        2.077268   1.000000
   95        2.259202   1.000000
   96        2.267215   1.000000
   97        2.412728   1.000017
   98        2.642472   1.004966
   99        2.905839   0.995599
  100        3.151656   0.185472
  101        3.204371   0.051005
  102        3.319797  -0.035382
  103        3.355415  -0.030811
  104        3.427563  -0.014974
  105        3.535425  -0.002438
  106        3.807202  -0.000001
  107        3.845252  -0.000000
  108        3.968774  -0.000000
  109        4.036587  -0.000000
  110        4.072209  -0.000000
  111        4.097459  -0.000000
  112        4.153541  -0.000000
  113        4.175648  -0.000000
  114        4.188660  -0.000000
  115        4.237901  -0.000000
  116        4.282612  -0.000000
  117        4.291781  -0.000000
  118        4.354498  -0.000000
  119        4.397547  -0.000000
  120        4.469147  -0.000000
  121        4.486647  -0.000000
  122        4.522432  -0.000000
  123        4.565465  -0.000000
  124        4.583474  -0.000000
  125        4.595454  -0.000000
  126        4.679979  -0.000000
  127        4.800452  -0.000000
  128        4.847668  -0.000000
  129        4.939512  -0.000000
  130        5.024565  -0.000000
  131        5.139203  -0.000000
  132        5.280890  -0.000000

  0.2222222E+00  0.3503827E-15  0.1262379E-14  0.2469136E-01
    1      -10.785672   1.000000
    2      -10.226358   1.000000
    3       -9.555517   1.000000
    4       -8.949122   1.000000
    5       -8.458193   1.000000
    6       -8.219651   1.000000
    7       -8.145373   1.000000
    8       -7.987401   1.000000
    9       -7.632464   1.000000
   10       -7.619503   1.000000
   11       -7.595296   1.000000
   12       -7.555125   1.000000
   13       -7.509943   1.000000
   14       -7.444536   1.000000
   15       -7.412964   1.000000
   16       -6.905105   1.000000
   17       -6.689501   1.000000
   18       -6.444810   1.000000
   19       -6.173650   1.000000
   20       -6.123437   1.000000
   21       -5.961984   1.000000
   22       -5.906771   1.000000
   23       -5.503313   1.000000
   24       -5.428620   1.000000
   25       -5.368721   1.000000
   26       -5.241928   1.000000
   27       -5.147183   1.000000
   28       -5.109152   1.000000
   29       -4.761601   1.000000
   30       -4.707416   1.000000
   31       -4.640225   1.000000
   32       -3.867429   1.000000
   33       -3.794320   1.000000
   34       -3.767888   1.000000
   35       -3.675073   1.000000
   36       -3.377588   1.000000
   37       -3.177531   1.000000
   38       -2.967466   1.000000
   39       -2.785629   1.000000
   40       -2.762713   1.000000
   41       -2.676007   1.000000
   42       -2.617678   1.000000
   43       -2.575234   1.000000
   44       -2.489637   1.000000
   45       -2.177688   1.000000
   46       -2.068074   1.000000
   47       -1.990134   1.000000
   48       -1.877251   1.000000
   49       -1.755249   1.000000
   50       -1.715948   1.000000
   51       -1.607743   1.000000
   52       -1.544847   1.000000
   53       -1.489583   1.000000
   54       -1.403352   1.000000
   55       -1.376411   1.000000
   56       -1.283346   1.000000
   57       -1.257590   1.000000
   58       -1.232543   1.000000
   59       -1.053131   1.000000
   60       -0.975150   1.000000
   61       -0.946207   1.000000
   62       -0.878733   1.000000
   63       -0.863224   1.000000
   64       -0.834175   1.000000
   65       -0.752480   1.000000
   66       -0.712020   1.000000
   67       -0.647935   1.000000
   68       -0.528135   1.000000
   69       -0.498058   1.000000
   70       -0.394930   1.000000
   71       -0.328561   1.000000
   72       -0.240185   1.000000
   73       -0.197798   1.000000
   74       -0.102886   1.000000
   75        0.040565   1.000000
   76        0.134048   1.000000
   77        0.161451   1.000000
   78        0.245254   1.000000
   79        0.374305   1.000000
   80        0.522090   1.000000
   81        0.578907   1.000000
   82        0.793125   1.000000
   83        0.885985   1.000000
   84        0.993337   1.000000
   85        1.073811   1.000000
   86        1.217429   1.000000
   87        1.373820   1.000000
   88        1.461694   1.000000
   89        1.578373   1.000000
   90        1.615965   1.000000
   91        1.832085   1.000000
   92        1.838181   1.000000
   93        1.996914   1.000000
   94        2.013010   1.000000
   95        2.251165   1.000000
   96        2.387114   1.000008
   97        2.474014   1.000103
   98        2.550353   1.000732
   99        2.860678   1.029446
  100        3.013724   0.729301
  101        3.233222   0.006373
  102        3.337720  -0.033803
  103        3.530366  -0.002699
  104        3.594598  -0.000662
  105        3.716375  -0.000024
  106        3.793925  -0.000002
  107        3.839765  -0.000000
  108        3.885127  -0.000000
  109        3.924005  -0.000000
  110        3.972569  -0.000000
  111        3.990199  -0.000000
  112        4.060115  -0.000000
  113        4.147278  -0.000000
  114        4.210055  -0.000000
  115        4.232126  -0.000000
  116        4.238783  -0.000000
  117        4.272072  -0.000000
  118        4.317029  -0.000000
  119        4.376543  -0.000000
  120        4.398141  -0.000000
  121        4.468338  -0.000000
  122        4.486773  -0.000000
  123        4.564058  -0.000000
  124        4.581775  -0.000000
  125        4.629728  -0.000000
  126        4.718199  -0.000000
  127        4.770904  -0.000000
  128        4.826471  -0.000000
  129        4.903140  -0.000000
  130        5.000622  -0.000000
  131        5.117317  -0.000000
  132        5.244032  -0.000000

  0.3333333E+00  0.3779629E-15  0.1262379E-14  0.2469136E-01
    1      -10.509613   1.000000
    2       -9.974730   1.000000
    3       -9.347350   1.000000
    4       -9.075373   1.000000
    5       -8.778921   1.000000
    6       -8.706536   1.000000
    7       -8.399883   1.000000
    8       -7.913961   1.000000
    9       -7.821423   1.000000
   10       -7.777417   1.000000
   11       -7.739589   1.000000
   12       -7.713102   1.000000
   13       -7.619930   1.000000
   14       -7.554190   1.000000
   15       -7.483053   1.000000
   16       -6.974664   1.000000
   17       -6.813576   1.000000
   18       -6.768257   1.000000
   19       -5.927608   1.000000
   20       -5.910357   1.000000
   21       -5.544235   1.000000
   22       -5.514467   1.000000
   23       -5.335552   1.000000
   24       -5.270120   1.000000
   25       -5.224060   1.000000
   26       -5.064007   1.000000
   27       -4.588387   1.000000
   28       -4.461686   1.000000
   29       -4.413310   1.000000
   30       -4.299479   1.000000
   31       -4.104262   1.000000
   32       -3.734427   1.000000
   33       -3.551147   1.000000
   34       -3.492147   1.000000
   35       -3.444587   1.000000
   36       -3.243978   1.000000
   37       -3.146848   1.000000
   38       -3.091403   1.000000
   39       -3.068142   1.000000
   40       -3.009869   1.000000
   41       -2.976317   1.000000
   42       -2.826571   1.000000
   43       -2.554803   1.000000
   44       -2.447994   1.000000
   45       -2.214421   1.000000
   46       -2.150785   1.000000
   47       -2.023220   1.000000
   48       -2.002857   1.000000
   49       -1.924560   1.000000
   50       -1.835479   1.000000
   51       -1.729011   1.000000
   52       -1.644895   1.000000
   53       -1.593549   1.000000
   54       -1.556570   1.000000
   55       -1.469226   1.000000
   56       -1.450508   1.000000
   57       -1.357581   1.000000
   58       -1.313268   1.000000
   59       -1.214244   1.000000
   60       -1.118788   1.000000
   61       -1.091309   1.000000
   62       -1.026675   1.000000
   63       -0.974382   1.000000
   64       -0.937463   1.000000
   65       -0.910509   1.000000
   66       -0.843599   1.000000
   67       -0.734795   1.000000
   68       -0.645106   1.000000
   69       -0.540005   1.000000
   70       -0.475773   1.000000
   71       -0.375024   1.000000
   72       -0.299330   1.000000
   73       -0.210003   1.000000
   74       -0.084157   1.000000
   75       -0.042743   1.000000
   76        0.034308   1.000000
   77        0.074999   1.000000
   78        0.160521   1.000000
   79        0.213143   1.000000
   80        0.396543   1.000000
   81        0.531576   1.000000
   82        0.617786   1.000000
   83        0.845819   1.000000
   84        0.948216   1.000000
   85        1.020229   1.000000
   86        1.120904   1.000000
   87        1.393469   1.000000
   88        1.442898   1.000000
   89        1.463616   1.000000
   90        1.618654   1.000000
   91        1.710818   1.000000
   92        1.728126   1.000000
   93        1.918240   1.000000
   94        2.016153   1.000000
   95        2.091442   1.000000
   96        2.305986   1.000000
   97        2.388249   1.000008
   98        2.700184   1.012555
   99        2.766841   1.026862
  100        2.846432   1.033501
  101        3.181563   0.100685
  102        3.323882  -0.035190
  103        3.342395  -0.033122
  104        3.438562  -0.012904
  105        3.540943  -0.002178
  106        3.657535  -0.000133
  107        3.691908  -0.000050
  108        3.801695  -0.000001
  109        3.861678  -0.000000
  110        3.901896  -0.000000
  111        3.936449  -0.000000
  112        4.020627  -0.000000
  113        4.076299  -0.000000
  114        4.101231  -0.000000
  115        4.197831  -0.000000
  116        4.239415  -0.000000
  117        4.327480  -0.000000
  118        4.359007  -0.000000
  119        4.369237  -0.000000
  120        4.439539  -0.000000
  121        4.475190  -0.000000
  122        4.503798  -0.000000
  123        4.583335  -0.000000
  124        4.634361  -0.000000
  125        4.677752  -0.000000
  126        4.760035  -0.000000
  127        4.804429  -0.000000
  128        4.814509  -0.000000
  129        4.916911  -0.000000
  130        4.999492  -0.000000
  131        5.102125  -0.000000
  132        5.211983  -0.000000

  0.4444444E+00  0.3698634E-15  0.1262379E-14  0.2469136E-01
    1      -10.149461   1.000000
    2       -9.656209   1.000000
    3       -9.597373   1.000000
    4       -9.181564   1.000000
    5       -9.073748   1.000000
    6       -8.707231   1.000000
    7       -8.558963   1.000000
    8       -8.236369   1.000000
    9       -7.871028   1.000000
   10       -7.818890   1.000000
   11       -7.776578   1.000000
   12       -7.668465   1.000000
   13       -7.628436   1.000000
   14       -7.541628   1.000000
   15       -7.478637   1.000000
   16       -7.198813   1.000000
   17       -6.999718   1.000000
   18       -6.824727   1.000000
   19       -5.859424   1.000000
   20       -5.846190   1.000000
   21       -5.256341   1.000000
   22       -5.146247   1.000000
   23       -5.107347   1.000000
   24       -5.099167   1.000000
   25       -5.060564   1.000000
   26       -5.006721   1.000000
   27       -4.233029   1.000000
   28       -3.996948   1.000000
   29       -3.930463   1.000000
   30       -3.734008   1.000000
   31       -3.699047   1.000000
   32       -3.644844   1.000000
   33       -3.590023   1.000000
   34       -3.486251   1.000000
   35       -3.400936   1.000000
   36       -3.316169   1.000000
   37       -3.249328   1.000000
   38       -3.202057   1.000000
   39       -3.176550   1.000000
   40       -3.134192   1.000000
   41       -3.061898   1.000000
   42       -2.965918   1.000000
   43       -2.861899   1.000000
   44       -2.650140   1.000000
   45       -2.427221   1.000000
   46       -2.176631   1.000000
   47       -2.123331   1.000000
   48       -2.040957   1.000000
   49       -1.957221   1.000000
   50       -1.828158   1.000000
   51       -1.766030   1.000000
   52       -1.724952   1.000000
   53       -1.703451   1.000000
   54       -1.620790   1.000000
   55       -1.506488   1.000000
   56       -1.502114   1.000000
   57       -1.383873   1.000000
   58       -1.351146   1.000000
   59       -1.271608   1.000000
   60       -1.189288   1.000000
   61       -1.174482   1.000000
   62       -1.113752   1.000000
   63       -1.058752   1.000000
   64       -1.040743   1.000000
   65       -0.942472   1.000000
   66       -0.924289   1.000000
   67       -0.771839   1.000000
   68       -0.711411   1.000000
   69       -0.642476   1.000000
   70       -0.532226   1.000000
   71       -0.440448   1.000000
   72       -0.339898   1.000000
   73       -0.235910   1.000000
   74       -0.208181   1.000000
   75       -0.093231   1.000000
   76       -0.037469   1.000000
   77       -0.010227   1.000000
   78        0.074676   1.000000
   79        0.243333   1.000000
   80        0.290668   1.000000
   81        0.451370   1.000000
   82        0.673238   1.000000
   83        0.757806   1.000000
   84        0.839790   1.000000
   85        1.062738   1.000000
   86        1.139403   1.000000
   87        1.283025   1.000000
   88        1.471163   1.000000
   89        1.538850   1.000000
   90        1.611982   1.000000
   91        1.701085   1.000000
   92        1.792299   1.000000
   93        1.905864   1.000000
   94        1.989199   1.000000
   95        2.034845   1.000000
   96        2.230247   1.000000
   97        2.396918   1.000010
   98        2.744119   1.021631
   99        2.785385   1.030829
  100        2.842991   1.034119
  101        2.877256   1.021165
  102        3.055894   0.561007
  103        3.165118   0.144617
  104        3.270227  -0.025062
  105        3.386742  -0.023902
  106        3.507611  -0.004184
  107        3.610792  -0.000448
  108        3.741095  -0.000011
  109        3.779528  -0.000003
  110        3.821087  -0.000001
  111        3.848827  -0.000000
  112        3.914951  -0.000000
  113        4.013341  -0.000000
  114        4.062554  -0.000000
  115        4.143855  -0.000000
  116        4.234981  -0.000000
  117        4.257498  -0.000000
  118        4.313997  -0.000000
  119        4.348625  -0.000000
  120        4.427193  -0.000000
  121        4.505669  -0.000000
  122        4.546137  -0.000000
  123        4.595258  -0.000000
  124        4.725459  -0.000000
  125        4.813309  -0.000000
  126        4.823404  -0.000000
  127        4.849223  -0.000000
  128        4.943772  -0.000000
  129        4.988048  -0.000000
  130        5.008349  -0.000000
  131        5.189816  -0.000000
  132        5.370474  -0.000000

  0.3742002E-15  0.1111111E+00  0.1262379E-14  0.2469136E-01
    1      -10.955587   1.000000
    2      -10.382103   1.000000
    3       -9.686704   1.000000
    4       -9.050784   1.000000
    5       -8.109774   1.000000
    6       -8.056712   1.000000
    7       -7.806403   1.000000
    8       -7.779654   1.000000
    9       -7.538820   1.000000
   10       -7.386923   1.000000
   11       -7.355448   1.000000
   12       -7.339385   1.000000
   13       -7.314703   1.000000
   14       -7.280328   1.000000
   15       -7.168376   1.000000
   16       -6.801263   1.000000
   17       -6.672278   1.000000
   18       -6.582668   1.000000
   19       -6.556111   1.000000
   20       -6.320606   1.000000
   21       -6.231932   1.000000
   22       -6.163385   1.000000
   23       -6.016565   1.000000
   24       -5.586499   1.000000
   25       -5.551405   1.000000
   26       -5.401431   1.000000
   27       -5.290008   1.000000
   28       -5.266947   1.000000
   29       -5.144363   1.000000
   30       -5.020989   1.000000
   31       -4.872889   1.000000
   32       -4.002518   1.000000
   33       -3.969347   1.000000
   34       -3.955133   1.000000
   35       -3.870434   1.000000
   36       -3.768107   1.000000
   37       -3.616221   1.000000
   38       -2.982152   1.000000
   39       -2.724967   1.000000
   40       -2.715345   1.000000
   41       -2.611696   1.000000
   42       -2.367851   1.000000
   43       -2.228031   1.000000
   44       -2.141544   1.000000
   45       -2.019125   1.000000
   46       -2.015571   1.000000
   47       -1.958297   1.000000
   48       -1.893552   1.000000
   49       -1.737545   1.000000
   50       -1.611866   1.000000
   51       -1.579897   1.000000
   52       -1.447041   1.000000
   53       -1.386824   1.000000
   54       -1.332764   1.000000
   55       -1.255729   1.000000
   56       -1.156366   1.000000
   57       -1.137543   1.000000
   58       -1.092383   1.000000
   59       -1.044768   1.000000
   60       -0.935101   1.000000
   61       -0.896807   1.000000
   62       -0.846719   1.000000
   63       -0.822604   1.000000
   64       -0.761125   1.000000
   65       -0.644261   1.000000
   66       -0.577155   1.000000
   67       -0.550262   1.000000
   68       -0.507247   1.000000
   69       -0.386186   1.000000
   70       -0.289130   1.000000
   71       -0.252883   1.000000
   72       -0.162860   1.000000
   73       -0.084867   1.000000
   74       -0.025107   1.000000
   75        0.045253   1.000000
   76        0.227066   1.000000
   77        0.340804   1.000000
   78        0.360708   1.000000
   79        0.453691   1.000000
   80        0.597363   1.000000
   81        0.670108   1.000000
   82        0.736774   1.000000
   83        0.925366   1.000000
   84        1.059844   1.000000
   85        1.247860   1.000000
   86        1.484237   1.000000
   87        1.585737   1.000000
   88        1.618680   1.000000
   89        1.710386   1.000000
   90        1.762432   1.000000
   91        1.865135   1.000000
   92        2.020337   1.000000
   93        2.031241   1.000000
   94        2.077037   1.000000
   95        2.259015   1.000000
   96        2.267392   1.000000
   97        2.412611   1.000017
   98        2.642253   1.004947
   99        2.905949   0.995468
  100        3.151561   0.185776
  101        3.204711   0.050364
  102        3.319956  -0.035377
  103        3.355528  -0.030789
  104        3.427206  -0.015044
  105        3.535094  -0.002454
  106        3.806968  -0.000001
  107        3.845046  -0.000000
  108        3.968911  -0.000000
  109        4.036527  -0.000000
  110        4.072575  -0.000000
  111        4.097551  -0.000000
  112        4.152888  -0.000000
  113        4.175411  -0.000000
  114        4.189614  -0.000000
  115        4.237584  -0.000000
  116        4.282702  -0.000000
  117        4.291784  -0.000000
  118        4.354301  -0.000000
  119        4.397416  -0.000000
  120        4.469220  -0.000000
  121        4.486422  -0.000000
  122        4.522926  -0.000000
  123        4.564955  -0.000000
  124        4.583602  -0.000000
  125        4.595476  -0.000000
  126        4.679951  -0.000000
  127        4.800309  -0.000000
  128        4.847862  -0.000000
  129        4.939308  -0.000000
  130        5.024947  -0.000000
  131        5.139039  -0.000000
  132        5.281038  -0.000000

  0.1111111E+00  0.1111111E+00  0.1262379E-14  0.2469136E-01
    1      -10.841108   1.000000
    2      -10.277360   1.000000
    3       -9.598150   1.000000
    4       -8.983323   1.000000
    5       -8.186292   1.000000
    6       -8.098786   1.000000
    7       -8.046566   1.000000
    8       -7.998671   1.000000
    9       -7.923409   1.000000
   10       -7.736064   1.000000
   11       -7.617405   1.000000
   12       -7.444785   1.000000
   13       -7.427176   1.000000
   14       -7.183045   1.000000
   15       -7.027930   1.000000
   16       -6.904011   1.000000
   17       -6.814360   1.000000
   18       -6.507609   1.000000
   19       -6.330036   1.000000
   20       -6.158985   1.000000
   21       -6.085265   1.000000
   22       -5.785293   1.000000
   23       -5.656294   1.000000
   24       -5.482492   1.000000
   25       -5.446912   1.000000
   26       -5.320812   1.000000
   27       -5.193596   1.000000
   28       -5.071719   1.000000
   29       -5.019750   1.000000
   30       -4.876483   1.000000
   31       -4.723044   1.000000
   32       -4.092928   1.000000
   33       -3.798494   1.000000
   34       -3.691975   1.000000
   35       -3.576657   1.000000
   36       -3.477260   1.000000
   37       -3.376395   1.000000
   38       -3.019646   1.000000
   39       -2.808548   1.000000
   40       -2.773910   1.000000
   41       -2.670691   1.000000
   42       -2.614958   1.000000
   43       -2.585984   1.000000
   44       -2.126620   1.000000
   45       -1.990736   1.000000
   46       -1.970050   1.000000
   47       -1.962248   1.000000
   48       -1.879735   1.000000
   49       -1.771377   1.000000
   50       -1.754075   1.000000
   51       -1.568333   1.000000
   52       -1.559090   1.000000
   53       -1.428246   1.000000
   54       -1.380387   1.000000
   55       -1.290074   1.000000
   56       -1.276258   1.000000
   57       -1.262085   1.000000
   58       -1.164814   1.000000
   59       -1.125863   1.000000
   60       -1.055531   1.000000
   61       -0.928191   1.000000
   62       -0.852006   1.000000
   63       -0.751122   1.000000
   64       -0.741775   1.000000
   65       -0.702588   1.000000
   66       -0.614228   1.000000
   67       -0.603569   1.000000
   68       -0.569860   1.000000
   69       -0.445257   1.000000
   70       -0.407772   1.000000
   71       -0.250712   1.000000
   72       -0.217694   1.000000
   73       -0.130317   1.000000
   74       -0.086033   1.000000
   75       -0.066450   1.000000
   76        0.089230   1.000000
   77        0.184838   1.000000
   78        0.310130   1.000000
   79        0.415915   1.000000
   80        0.574250   1.000000
   81        0.654676   1.000000
   82        0.755722   1.000000
   83        0.894850   1.000000
   84        0.980695   1.000000
   85        1.029851   1.000000
   86        1.160090   1.000000
   87        1.485810   1.000000
   88        1.505560   1.000000
   89        1.704949   1.000000
   90        1.764729   1.000000
   91        1.885174   1.000000
   92        1.927210   1.000000
   93        1.929413   1.000000
   94        1.961043   1.000000
   95        2.155000   1.000000
   96        2.164865   1.000000
   97        2.513285   1.000295
   98        2.693123   1.011347