   56   56   85    1
  0.1358781E+02  0.6088057E-09  0.6088057E-09  0.2372246E-08  0.5000000E-15
   1.0000000000000000E-004
  CAR 
 Name                                    
    202     41    132

  0.3742002E-15  0.3742002E-15  0.1262379E-14  0.1234568E-01
    1      -11.683040   1.000000
    2      -11.096821   1.000000
    3      -10.295318   1.000000
    4       -9.245995   1.000000
    5       -8.867979   1.000000
    6       -8.803757   1.000000
    7       -8.407674   1.000000
    8       -8.227795   1.000000
    9       -8.101038   1.000000
   10       -7.982498   1.000000
   11       -7.911392   1.000000
   12       -7.876136   1.000000
   13       -7.837230   1.000000
   14       -7.834018   1.000000
   15       -7.572801   1.000000
   16       -7.507757   1.000000
   17       -7.482198   1.000000
   18       -7.367977   1.000000
   19       -7.232149   1.000000
   20       -7.169268   1.000000
   21       -7.024563   1.000000
   22       -6.405576   1.000000
   23       -6.261999   1.000000
   24       -6.175670   1.000000
   25       -6.157372   1.000000
   26       -6.046165   1.000000
   27       -6.035284   1.000000
   28       -5.818681   1.000000
   29       -5.610802   1.000000
   30       -5.334475   1.000000
   31       -5.285602   1.000000
   32       -4.877183   1.000000
   33       -4.765072   1.000000
   34       -4.753847   1.000000
   35       -4.443928   1.000000
   36       -4.315949   1.000000
   37       -4.254954   1.000000
   38       -3.804302   1.000000
   39       -3.299121   1.000000
   40       -3.211870   1.000000
   41       -3.178591   1.000000
   42       -3.120276   1.000000
   43       -2.831787   1.000000
   44       -2.770569   1.000000
   45       -2.732349   1.000000
   46       -2.635627   1.000000
   47       -2.532230   1.000000
   48       -2.429647   1.000000
   49       -2.416566   1.000000
   50       -2.347161   1.000000
   51       -2.209936   1.000000
   52       -2.101501   1.000000
   53       -2.074719   1.000000
   54       -2.025361   1.000000
   55       -1.986854   1.000000
   56       -1.978768   1.000000
   57       -1.906209   1.000000
   58       -1.844795   1.000000
   59       -1.838624   1.000000
   60       -1.631491   1.000000
   61       -1.599389   1.000000
   62       -1.479174   1.000000
   63       -1.450689   1.000000
   64       -1.327371   1.000000
   65       -1.281981   1.000000
   66       -1.271228   1.000000
   67       -1.046112   1.000000
   68       -0.969344   1.000000
   69       -0.966479   1.000000
   70       -0.834191   1.000000
   71       -0.830119   1.000000
   72       -0.803667   1.000000
   73       -0.766466   1.000000
   74       -0.733569   1.000000
   75       -0.563316   1.000000
   76       -0.269058   1.000000
   77       -0.267585   1.000000
   78       -0.264885   1.000000
   79       -0.196425   1.000000
   80       -0.049544   1.000000
   81        0.183990   1.000000
   82        0.468805   1.000000
   83        0.471322   1.000000
   84        0.586577   1.000000
   85        0.926455   1.000000
   86        0.931049   1.000000
   87        1.046919   1.000000
   88        1.158637   1.000000
   89        1.179018   1.000000
   90        1.179780   1.000000
   91        1.334504   1.000000
   92        1.369918   1.000000
   93        1.421177   1.000000
   94        1.426404   1.000000
   95        1.530481   1.000000
   96        1.707288   1.000000
   97        1.835834   1.000011
   98        1.995205   1.000881
   99        2.248864   1.034826
  100        2.490638   0.569937
  101        2.559803   0.285836
  102        2.760553  -0.035203
  103        2.838079  -0.020581
  104        2.922216  -0.006229
  105        3.037397  -0.000575
  106        3.086412  -0.000165
  107        3.232924  -0.000002
  108        3.304521  -0.000000
  109        3.416614  -0.000000
  110        3.426993  -0.000000
  111        3.488115  -0.000000
  112        3.517237  -0.000000
  113        3.544637  -0.000000
  114        3.637504  -0.000000
  115        3.640502  -0.000000
  116        3.726398  -0.000000
  117        3.740003  -0.000000
  118        3.742777  -0.000000
  119        3.823775  -0.000000
  120        3.844645  -0.000000
  121        3.938423  -0.000000
  122        3.970962  -0.000000
  123        4.008988  -0.000000
  124        4.029453  -0.000000
  125        4.080166  -0.000000
  126        4.163972  -0.000000
  127        4.212129  -0.000000
  128        4.264509  -0.000000
  129        4.401389  -0.000000
  130        4.420551  -0.000000
  131        4.514645  -0.000000
  132        4.623193  -0.000000

  0.1111111E+00  0.3857958E-15  0.1262379E-14  0.2469136E-01
    1      -11.625742   1.000000
    2      -11.044194   1.000000
    3      -10.254267   1.000000
    4       -9.211033   1.000000
    5       -8.835841   1.000000
    6       -8.821029   1.000000
    7       -8.564140   1.000000
    8       -8.430212   1.000000
    9       -8.256226   1.000000
   10       -8.169794   1.000000
   11       -8.131532   1.000000
   12       -8.096338   1.000000
   13       -7.953443   1.000000
   14       -7.921437   1.000000
   15       -7.658455   1.000000
   16       -7.340116   1.000000
   17       -7.270382   1.000000
   18       -7.085649   1.000000
   19       -7.038343   1.000000
   20       -6.948575   1.000000
   21       -6.739539   1.000000
   22       -6.428201   1.000000
   23       -6.290318   1.000000
   24       -6.187846   1.000000
   25       -6.097783   1.000000
   26       -6.014846   1.000000
   27       -5.902784   1.000000
   28       -5.848070   1.000000
   29       -5.558268   1.000000
   30       -5.431401   1.000000
   31       -5.187419   1.000000
   32       -4.761595   1.000000
   33       -4.728131   1.000000
   34       -4.559245   1.000000
   35       -4.398126   1.000000
   36       -4.203871   1.000000
   37       -4.044068   1.000000
   38       -3.769275   1.000000
   39       -3.340590   1.000000
   40       -3.271774   1.000000
   41       -3.143782   1.000000
   42       -3.103391   1.000000
   43       -2.923834   1.000000
   44       -2.809832   1.000000
   45       -2.779886   1.000000
   46       -2.747032   1.000000
   47       -2.677161   1.000000
   48       -2.570012   1.000000
   49       -2.397250   1.000000
   50       -2.295979   1.000000
   51       -2.234018   1.000000
   52       -2.127864   1.000000
   53       -2.041092   1.000000
   54       -2.013291   1.000000
   55       -1.986528   1.000000
   56       -1.954616   1.000000
   57       -1.939500   1.000000
   58       -1.848376   1.000000
   59       -1.826888   1.000000
   60       -1.640274   1.000000
   61       -1.606609   1.000000
   62       -1.529969   1.000000
   63       -1.501306   1.000000
   64       -1.422247   1.000000
   65       -1.316695   1.000000
   66       -1.296567   1.000000
   67       -1.165459   1.000000
   68       -1.059149   1.000000
   69       -1.010246   1.000000
   70       -0.880948   1.000000
   71       -0.842629   1.000000
   72       -0.805893   1.000000
   73       -0.729865   1.000000
   74       -0.664777   1.000000
   75       -0.540921   1.000000
   76       -0.374297   1.000000
   77       -0.329973   1.000000
   78       -0.282226   1.000000
   79       -0.162900   1.000000
   80       -0.102353   1.000000
   81        0.018470   1.000000
   82        0.238186   1.000000
   83        0.393906   1.000000
   84        0.530938   1.000000
   85        0.738825   1.000000
   86        0.748392   1.000000
   87        0.961962   1.000000
   88        1.058904   1.000000
   89        1.197970   1.000000
   90        1.240481   1.000000
   91        1.272101   1.000000
   92        1.321432   1.000000
   93        1.374715   1.000000
   94        1.532747   1.000000
   95        1.574087   1.000000
   96        1.621043   1.000000
   97        2.043542   1.002507
   98        2.246158   1.034562
   99        2.403276   0.880761
  100        2.444651   0.750970
  101        2.608174   0.127320
  102        2.687527  -0.011654
  103        2.721208  -0.030942
  104        2.860613  -0.015735
  105        2.951679  -0.003655
  106        3.183233  -0.000010
  107        3.294420  -0.000000
  108        3.342840  -0.000000
  109        3.390059  -0.000000
  110        3.437344  -0.000000
  111        3.479603  -0.000000
  112        3.489996  -0.000000
  113        3.571645  -0.000000
  114        3.588662  -0.000000
  115        3.614948  -0.000000
  116        3.685870  -0.000000
  117        3.721929  -0.000000
  118        3.745481  -0.000000
  119        3.798187  -0.000000
  120        3.810924  -0.000000
  121        3.886237  -0.000000
  122        3.952016  -0.000000
  123        3.957340  -0.000000
  124        4.020715  -0.000000
  125        4.047734  -0.000000
  126        4.095584  -0.000000
  127        4.142372  -0.000000
  128        4.247572  -0.000000
  129        4.351191  -0.000000
  130        4.430194  -0.000000
  131        4.544000  -0.000000
  132        4.583403  -0.000000

  0.2222222E+00  0.3935346E-15  0.1262379E-14  0.2469136E-01
    1      -11.456023   1.000000
    2      -10.888723   1.000000
    3      -10.134159   1.000000
    4       -9.145447   1.000000
    5       -9.107324   1.000000
    6       -8.929871   1.000000
    7       -8.870597   1.000000
    8       -8.728065   1.000000
    9       -8.415838   1.000000
   10       -8.352768   1.000000
   11       -8.324090   1.000000
   12       -8.177898   1.000000
   13       -8.169228   1.000000
   14       -8.097948   1.000000
   15       -7.888544   1.000000
   16       -7.234923   1.000000
   17       -6.944886   1.000000
   18       -6.926586   1.000000
   19       -6.754557   1.000000
   20       -6.660419   1.000000
   21       -6.435357   1.000000
   22       -6.199537   1.000000
   23       -6.102549   1.000000
   24       -6.060472   1.000000
   25       -5.980339   1.000000
   26       -5.938859   1.000000
   27       -5.827451   1.000000
   28       -5.712609   1.000000
   29       -5.334078   1.000000
   30       -5.283495   1.000000
   31       -4.898630   1.000000
   32       -4.603660   1.000000
   33       -4.570588   1.000000
   34       -4.301979   1.000000
   35       -4.080619   1.000000
   36       -4.015171   1.000000
   37       -3.701135   1.000000
   38       -3.569099   1.000000
   39       -3.509266   1.000000
   40       -3.439875   1.000000
   41       -3.316046   1.000000
   42       -3.296308   1.000000
   43       -3.111861   1.000000
   44       -3.033025   1.000000
   45       -2.985597   1.000000
   46       -2.730743   1.000000
   47       -2.653082   1.000000
   48       -2.623899   1.000000
   49       -2.366911   1.000000
   50       -2.320805   1.000000
   51       -2.259869   1.000000
   52       -2.252581   1.000000
   53       -2.116292   1.000000
   54       -2.099676   1.000000
   55       -2.045397   1.000000
   56       -2.027774   1.000000
   57       -1.918236   1.000000
   58       -1.892974   1.000000
   59       -1.856104   1.000000
   60       -1.690627   1.000000
   61       -1.647913   1.000000
   62       -1.626623   1.000000
   63       -1.582720   1.000000
   64       -1.546400   1.000000
   65       -1.423547   1.000000
   66       -1.391544   1.000000
   67       -1.314996   1.000000
   68       -1.196456   1.000000
   69       -1.122387   1.000000
   70       -1.093489   1.000000
   71       -0.904497   1.000000
   72       -0.874027   1.000000
   73       -0.800004   1.000000
   74       -0.646404   1.000000
   75       -0.618785   1.000000
   76       -0.502446   1.000000
   77       -0.486953   1.000000
   78       -0.388967   1.000000
   79       -0.273409   1.000000
   80       -0.125613   1.000000
   81       -0.049582   1.000000
   82        0.068263   1.000000
   83        0.309881   1.000000
   84        0.374044   1.000000
   85        0.565711   1.000000
   86        0.589229   1.000000
   87        0.791627   1.000000
   88        0.850718   1.000000
   89        1.048988   1.000000
   90        1.120320   1.000000
   91        1.202569   1.000000
   92        1.239204   1.000000
   93        1.410880   1.000000
   94        1.428255   1.000000
   95        1.564158   1.000000
   96        1.762119   1.000001
   97        2.037294   1.002207
   98        2.180026   1.021409
   99        2.368726   0.957234
  100        2.504193   0.512849
  101        2.632611   0.068278
  102        2.813676  -0.026194
  103        2.863894  -0.015081
  104        2.974845  -0.002315
  105        3.030053  -0.000685
  106        3.149061  -0.000028
  107        3.198729  -0.000006
  108        3.230485  -0.000002
  109        3.262208  -0.000001
  110        3.286696  -0.000000
  111        3.315979  -0.000000
  112        3.455801  -0.000000
  113        3.512567  -0.000000
  114        3.555497  -0.000000
  115        3.585073  -0.000000
  116        3.622160  -0.000000
  117        3.679277  -0.000000
  118        3.685686  -0.000000
  119        3.724346  -0.000000
  120        3.825349  -0.000000
  121        3.828020  -0.000000
  122        3.889004  -0.000000
  123        3.924351  -0.000000
  124        4.022231  -0.000000
  125        4.083180  -0.000000
  126        4.111147  -0.000000
  127        4.183310  -0.000000
  128        4.192921  -0.000000
  129        4.270069  -0.000000
  130        4.401532  -0.000000
  131        4.497203  -0.000000
  132        4.684220  -0.000000

  0.3333333E+00  0.3939838E-15  0.1262379E-14  0.2469136E-01
    1      -11.181290   1.000000
    2      -10.638032   1.000000
    3       -9.944155   1.000000
    4       -9.745734   1.000000
    5       -9.390244   1.000000
    6       -9.117717   1.000000
    7       -8.943533   1.000000
    8       -8.563597   1.000000
    9       -8.516867   1.000000
   10       -8.486455   1.000000
   11       -8.473249   1.000000
   12       -8.315159   1.000000
   13       -8.235312   1.000000
   14       -8.166778   1.000000
   15       -8.142618   1.000000
   16       -7.595374   1.000000
   17       -6.763262   1.000000
   18       -6.706686   1.000000
   19       -6.567070   1.000000
   20       -6.286081   1.000000
   21       -6.197268   1.000000
   22       -6.133633   1.000000
   23       -6.027674   1.000000
   24       -5.981489   1.000000
   25       -5.958274   1.000000
   26       -5.737055   1.000000
   27       -5.279727   1.000000
   28       -5.100609   1.000000
   29       -4.992124   1.000000
   30       -4.704467   1.000000
   31       -4.587585   1.000000
   32       -4.384313   1.000000
   33       -4.300414   1.000000
   34       -4.180092   1.000000
   35       -3.933063   1.000000
   36       -3.847971   1.000000
   37       -3.807593   1.000000
   38       -3.774921   1.000000
   39       -3.739416   1.000000
   40       -3.628102   1.000000
   41       -3.597492   1.000000
   42       -3.492035   1.000000
   43       -3.105864   1.000000
   44       -2.932169   1.000000
   45       -2.885468   1.000000
   46       -2.866431   1.000000
   47       -2.711564   1.000000
   48       -2.614446   1.000000
   49       -2.557586   1.000000
   50       -2.452618   1.000000
   51       -2.358824   1.000000
   52       -2.322355   1.000000
   53       -2.251850   1.000000
   54       -2.201544   1.000000
   55       -2.178108   1.000000
   56       -2.089712   1.000000
   57       -2.075953   1.000000
   58       -1.984594   1.000000
   59       -1.921507   1.000000
   60       -1.825086   1.000000
   61       -1.769935   1.000000
   62       -1.668629   1.000000
   63       -1.619492   1.000000
   64       -1.596139   1.000000
   65       -1.562170   1.000000
   66       -1.474744   1.000000
   67       -1.375540   1.000000
   68       -1.332950   1.000000
   69       -1.287253   1.000000
   70       -1.188897   1.000000
   71       -1.010336   1.000000
   72       -0.932319   1.000000
   73       -0.901221   1.000000
   74       -0.769270   1.000000
   75       -0.727971   1.000000
   76       -0.663809   1.000000
   77       -0.551584   1.000000
   78       -0.514863   1.000000
   79       -0.368173   1.000000
   80       -0.230013   1.000000
   81       -0.130270   1.000000
   82        0.075218   1.000000
   83        0.294921   1.000000
   84        0.351844   1.000000
   85        0.550501   1.000000
   86        0.580842   1.000000
   87        0.671438   1.000000
   88        0.802165   1.000000
   89        0.909429   1.000000
   90        0.927319   1.000000
   91        1.085966   1.000000
   92        1.193758   1.000000
   93        1.301662   1.000000
   94        1.371918   1.000000
   95        1.453046   1.000000
   96        1.861053   1.000024
   97        1.953175   1.000318
   98        2.012752   1.001309
   99        2.214597   1.029259
  100        2.530395   0.402702
  101        2.570669   0.245952
  102        2.617559   0.102865
  103        2.762861  -0.035049
  104        2.820237  -0.024684
  105        2.888646  -0.010668
  106        2.968521  -0.002631
  107        3.080425  -0.000194
  108        3.093010  -0.000138
  109        3.163314  -0.000018
  110        3.251610  -0.000001
  111        3.338768  -0.000000
  112        3.342526  -0.000000
  113        3.384683  -0.000000
  114        3.471144  -0.000000
  115        3.498823  -0.000000
  116        3.605324  -0.000000
  117        3.686631  -0.000000
  118        3.719228  -0.000000
  119        3.729519  -0.000000
  120        3.798064  -0.000000
  121        3.853402  -0.000000
  122        3.944924  -0.000000
  123        4.002968  -0.000000
  124        4.045026  -0.000000
  125        4.089733  -0.000000
  126        4.144795  -0.000000
  127        4.162266  -0.000000
  128        4.313798  -0.000000
  129        4.371241  -0.000000
  130        4.496737  -0.000000
  131        4.524889  -0.000000
  132        4.537440  -0.000000

  0.4444444E+00  0.3881204E-15  0.1262379E-14  0.2469136E-01
    1      -10.828240   1.000000
    2      -10.313433   1.000000
    3      -10.265737   1.000000
    4       -9.847073   1.000000
    5       -9.699875   1.000000
    6       -9.399980   1.000000
    7       -8.726662   1.000000
    8       -8.570778   1.000000
    9       -8.565176   1.000000
   10       -8.541739   1.000000
   11       -8.460178   1.000000
   12       -8.378326   1.000000
   13       -8.299209   1.000000
   14       -8.283091   1.000000
   15       -8.133532   1.000000
   16       -7.968351   1.000000
   17       -6.715567   1.000000
   18       -6.593885   1.000000
   19       -6.552432   1.000000
   20       -6.269177   1.000000
   21       -6.066835   1.000000
   22       -5.923882   1.000000
   23       -5.863607   1.000000
   24       -5.814170   1.000000
   25       -5.743820   1.000000
   26       -5.628742   1.000000
   27       -4.701994   1.000000
   28       -4.546853   1.000000
   29       -4.473884   1.000000
   30       -4.399250   1.000000
   31       -4.308421   1.000000
   32       -4.280534   1.000000
   33       -4.179297   1.000000
   34       -4.137797   1.000000
   35       -4.050423   1.000000
   36       -4.035853   1.000000
   37       -3.947540   1.000000
   38       -3.933151   1.000000
   39       -3.784798   1.000000
   40       -3.763251   1.000000
   41       -3.656594   1.000000
   42       -3.561588   1.000000
   43       -3.462303   1.000000
   44       -3.371498   1.000000
   45       -2.907440   1.000000
   46       -2.867788   1.000000
   47       -2.733161   1.000000
   48       -2.651042   1.000000
   49       -2.614130   1.000000
   50       -2.473717   1.000000
   51       -2.463163   1.000000
   52       -2.344774   1.000000
   53       -2.289715   1.000000
   54       -2.239418   1.000000
   55       -2.201434   1.000000
   56       -2.150840   1.000000
   57       -2.101685   1.000000
   58       -2.066463   1.000000
   59       -1.975836   1.000000
   60       -1.873619   1.000000
   61       -1.803839   1.000000
   62       -1.739197   1.000000
   63       -1.694324   1.000000
   64       -1.656597   1.000000
   65       -1.569315   1.000000
   66       -1.551442   1.000000
   67       -1.427434   1.000000
   68       -1.334991   1.000000
   69       -1.296526   1.000000
   70       -1.213194   1.000000
   71       -1.135325   1.000000
   72       -1.021544   1.000000
   73       -0.915687   1.000000
   74       -0.855521   1.000000
   75       -0.805870   1.000000
   76       -0.719342   1.000000
   77       -0.698241   1.000000
   78       -0.558905   1.000000
   79       -0.483456   1.000000
   80       -0.248844   1.000000
   81       -0.119302   1.000000
   82       -0.001915   1.000000
   83        0.302362   1.000000
   84        0.491406   1.000000
   85        0.507271   1.000000
   86        0.553151   1.000000
   87        0.667130   1.000000
   88        0.703990   1.000000
   89        0.816652   1.000000
   90        0.904940   1.000000
   91        0.963337   1.000000
   92        1.148818   1.000000
   93        1.184099   1.000000
   94        1.490654   1.000000
   95        1.583165   1.000000
   96        1.789607   1.000002
   97        2.011139   1.001263
   98        2.082306   1.005236
   99        2.114156   1.008927
  100        2.175160   1.020306
  101        2.236969   1.033393
  102        2.507119   0.500466
  103        2.614020   0.111826
  104        2.694917  -0.017503
  105        2.756548  -0.035386
  106        2.831193  -0.022152
  107        2.925149  -0.005922
  108        3.015208  -0.000967
  109        3.102511  -0.000107
  110        3.170717  -0.000014
  111        3.201566  -0.000005
  112        3.281150  -0.000000
  113        3.309779  -0.000000
  114        3.393589  -0.000000
  115        3.423532  -0.000000
  116        3.557288  -0.000000
  117        3.635133  -0.000000
  118        3.702326  -0.000000
  119        3.727746  -0.000000
  120        3.796821  -0.000000
  121        3.891706  -0.000000
  122        3.973733  -0.000000
  123        4.026630  -0.000000
  124        4.124532  -0.000000
  125        4.180667  -0.000000
  126        4.243561  -0.000000
  127        4.345583  -0.000000
  128        4.351798  -0.000000
  129        4.438787  -0.000000
  130        4.568704  -0.000000
  131        4.669007  -0.000000
  132        4.736701  -0.000000

  0.3742002E-15  0.1111111E+00  0.1262379E-14  0.2469136E-01
    1      -11.625743   1.000000
    2      -11.044194   1.000000
    3      -10.254268   1.000000
    4       -9.211040   1.000000
    5       -8.835836   1.000000
    6       -8.821026   1.000000
    7       -8.564160   1.000000
    8       -8.430288   1.000000
    9       -8.256227   1.000000
   10       -8.169814   1.000000
   11       -8.131479   1.000000
   12       -8.096327   1.000000
   13       -7.953387   1.000000
   14       -7.921392   1.000000
   15       -7.658459   1.000000
   16       -7.340129   1.000000
   17       -7.270352   1.000000
   18       -7.085700   1.000000
   19       -7.038170   1.000000
   20       -6.948733   1.000000
   21       -6.739539   1.000000
   22       -6.428141   1.000000
   23       -6.290380   1.000000
   24       -6.187842   1.000000
   25       -6.097508   1.000000
   26       -6.014975   1.000000
   27       -5.902800   1.000000
   28       -5.848144   1.000000
   29       -5.558380   1.000000
   30       -5.431486   1.000000
   31       -5.187653   1.000000
   32       -4.761623   1.000000
   33       -4.728101   1.000000
   34       -4.559258   1.000000
   35       -4.397347   1.000000
   36       -4.203883   1.000000
   37       -4.044396   1.000000
   38       -3.769336   1.000000
   39       -3.340599   1.000000
   40       -3.271796   1.000000
   41       -3.143729   1.000000
   42       -3.103465   1.000000
   43       -2.923535   1.000000
   44       -2.809837   1.000000
   45       -2.779822   1.000000
   46       -2.747388   1.000000
   47       -2.677234   1.000000
   48       -2.569840   1.000000
   49       -2.397210   1.000000
   50       -2.295896   1.000000
   51       -2.234165   1.000000
   52       -2.128044   1.000000
   53       -2.040764   1.000000
   54       -2.013351   1.000000
   55       -1.986509   1.000000
   56       -1.954569   1.000000
   57       -1.939472   1.000000
   58       -1.848533   1.000000
   59       -1.826946   1.000000
   60       -1.640114   1.000000
   61       -1.606763   1.000000
   62       -1.530458   1.000000
   63       -1.500713   1.000000
   64       -1.422631   1.000000
   65       -1.316465   1.000000
   66       -1.296646   1.000000
   67       -1.165042   1.000000
   68       -1.059332   1.000000
   69       -1.010312   1.000000
   70       -0.880882   1.000000
   71       -0.842770   1.000000
   72       -0.805771   1.000000
   73       -0.729931   1.000000
   74       -0.664896   1.000000
   75       -0.540934   1.000000
   76       -0.374397   1.000000
   77       -0.329829   1.000000
   78       -0.282429   1.000000
   79       -0.162860   1.000000
   80       -0.102592   1.000000
   81        0.018916   1.000000
   82        0.237940   1.000000
   83        0.394097   1.000000
   84        0.530846   1.000000
   85        0.738777   1.000000
   86        0.748432   1.000000
   87        0.961934   1.000000
   88        1.058862   1.000000
   89        1.198040   1.000000
   90        1.240435   1.000000
   91        1.272189   1.000000
   92        1.321342   1.000000
   93        1.374575   1.000000
   94        1.533011   1.000000
   95        1.573728   1.000000
   96        1.621540   1.000000
   97        2.043375   1.002498
   98        2.246422   1.034590
   99        2.403127   0.881156
  100        2.444673   0.750889
  101        2.608102   0.127517
  102        2.687464  -0.011600
  103        2.721311  -0.030975
  104        2.860373  -0.015783
  105        2.951834  -0.003645
  106        3.183575  -0.000009
  107        3.294707  -0.000000
  108        3.342715  -0.000000
  109        3.389996  -0.000000
  110        3.437545  -0.000000
  111        3.478194  -0.000000
  112        3.490801  -0.000000
  113        3.571674  -0.000000
  114        3.588710  -0.000000
  115        3.614879  -0.000000
  116        3.685824  -0.000000
  117        3.722098  -0.000000
  118        3.745540  -0.000000
  119        3.798075  -0.000000
  120        3.811252  -0.000000
  121        3.886294  -0.000000
  122        3.952130  -0.000000
  123        3.956765  -0.000000
  124        4.020587  -0.000000
  125        4.047822  -0.000000
  126        4.095983  -0.000000
  127        4.142431  -0.000000
  128        4.247465  -0.000000
  129        4.351281  -0.000000
  130        4.429807  -0.000000
  131        4.544010  -0.000000
  132        4.583673  -0.000000

  0.1111111E+00  0.1111111E+00  0.1262379E-14  0.2469136E-01
    1      -11.511564   1.000000
    2      -10.939572   1.000000
    3      -10.172235   1.000000
    4       -9.134156   1.000000
    5       -8.892474   1.000000
    6       -8.855600   1.000000
    7       -8.763898   1.000000
    8       -8.688048   1.000000
    9       -8.634678   1.000000
   10       -8.440572   1.000000
   11       -8.403736   1.000000
   12       -8.145951   1.000000
   13       -7.946292   1.000000
   14       -7.871900   1.000000
   15       -7.543599   1.000000
   16       -7.526852   1.000000
   17       -7.086438   1.000000
   18       -7.064660   1.000000
   19       -6.928656   1.000000
   20       -6.473699   1.000000
   21       -6.441653   1.000000
   22       -6.342691   1.000000
   23       -6.146765   1.000000
   24       -6.105511   1.000000
   25       -5.992142   1.000000
   26       -5.894790   1.000000
   27       -5.787553   1.000000
   28       -5.694459   1.000000
   29       -5.505212   1.000000
   30       -5.459305   1.000000
   31       -5.144255   1.000000
   32       -4.863279   1.000000
   33       -4.341919   1.000000
   34       -4.315556   1.000000
   35       -4.171563   1.000000
   36       -4.114087   1.000000
   37       -3.755801   1.000000
   38       -3.633227   1.000000
   39       -3.506046   1.000000
   40       -3.447264   1.000000
   41       -3.317729   1.000000
   42       -3.056876   1.000000
   43       -3.025654   1.000000
   44       -3.022218   1.000000
   45       -2.833862   1.000000
   46       -2.735574   1.000000
   47       -2.631588   1.000000
   48       -2.546055   1.000000
   49       -2.432460   1.000000
   50       -2.428383   1.000000
   51       -2.253813   1.000000
   52       -2.226791   1.000000
   53       -2.118596   1.000000
   54       -2.008021   1.000000
   55       -1.986380   1.000000
   56       -1.955399   1.000000
   57       -1.940059   1.000000
   58       -1.914262   1.000000
   59       -1.813405   1.000000
   60       -1.747082   1.000000
   61       -1.593273   1.000000
   62       -1.570142   1.000000
   63       -1.563299   1.000000
   64       -1.510400   1.000000
   65       -1.416768   1.000000
   66       -1.381611   1.000000
   67       -1.241795   1.000000
   68       -1.196411   1.000000
   69       -1.090055   1.000000
   70       -0.946282   1.000000
   71       -0.884491   1.000000
   72       -0.840813   1.000000
   73       -0.818473   1.000000
   74       -0.727024   1.000000
   75       -0.646978   1.000000
   76       -0.459280   1.000000
   77       -0.408285   1.000000
   78       -0.327244   1.000000
   79       -0.204691   1.000000
   80       -0.119306   1.000000
   81       -0.023588   1.000000
   82        0.141174   1.000000
   83        0.199491   1.000000
   84        0.445669   1.000000
   85        0.457146   1.000000
   86        0.690234   1.000000
   87        0.879880   1.000000
   88        1.058387   1.000000
   89        1.130655   1.000000
   90        1.172364   1.000000
   91        1.188048   1.000000
   92        1.225380   1.000000
   93        1.321822   1.000000
   94        1.425233   1.000000
   95        1.555793   1.000000
   96        1.754625   1.000001
   97        2.129503   1.011265
   98        2.238765   1.033652