   48   48    1    1
  0.2089534E+02  0.8733603E-09  0.6079487E-09  0.2183401E-08  0.5000000E-15
   1.0000000000000000E-004
  CAR 
 Name                                    
    184     50    120

  0.3742002E-15  0.3742002E-15  0.1262379E-14  0.1010101E-01
    1      -13.189458   1.000000
    2      -11.820365   1.000000
    3      -11.750554   1.000000
    4      -11.333040   1.000000
    5      -10.569825   1.000000
    6      -10.410088   1.000000
    7      -10.276341   1.000000
    8      -10.199233   1.000000
    9      -10.059094   1.000000
   10       -9.890701   1.000000
   11       -9.890016   1.000000
   12       -9.488639   1.000000
   13       -9.358044   1.000000
   14       -9.349745   1.000000
   15       -8.934374   1.000000
   16       -8.923702   1.000000
   17       -8.000332   1.000000
   18       -7.901243   1.000000
   19       -7.899984   1.000000
   20       -7.613304   1.000000
   21       -7.606775   1.000000
   22       -7.344814   1.000000
   23       -7.303880   1.000000
   24       -7.222352   1.000000
   25       -7.195248   1.000000
   26       -7.130380   1.000000
   27       -6.468384   1.000000
   28       -6.071944   1.000000
   29       -5.583365   1.000000
   30       -5.530553   1.000000
   31       -5.487351   1.000000
   32       -5.200864   1.000000
   33       -4.909500   1.000000
   34       -4.885077   1.000000
   35       -4.793270   1.000000
   36       -4.543628   1.000000
   37       -4.478691   1.000000
   38       -4.432719   1.000000
   39       -4.326846   1.000000
   40       -4.184434   1.000000
   41       -4.119919   1.000000
   42       -4.064288   1.000000
   43       -3.958078   1.000000
   44       -3.905435   1.000000
   45       -3.810717   1.000000
   46       -3.724698   1.000000
   47       -3.704855   1.000000
   48       -3.654803   1.000000
   49       -3.619971   1.000000
   50       -3.565926   1.000000
   51       -3.564015   1.000000
   52       -3.339035   1.000000
   53       -3.197633   1.000000
   54       -3.109092   1.000000
   55       -3.096403   1.000000
   56       -2.989883   1.000000
   57       -2.974646   1.000000
   58       -2.910586   1.000000
   59       -2.721947   1.000000
   60       -2.674626   1.000000
   61       -2.671121   1.000000
   62       -2.525493   1.000000
   63       -2.488580   1.000000
   64       -2.469779   1.000000
   65       -2.419975   1.000000
   66       -2.309212   1.000000
   67       -2.239604   1.000000
   68       -2.172740   1.000000
   69       -2.146487   1.000000
   70       -2.096604   1.000000
   71       -1.608958   1.000000
   72       -1.604193   1.000000
   73       -1.426511   1.000000
   74       -1.363493   1.000000
   75       -1.344340   1.000000
   76       -1.322230   1.000000
   77       -1.239102   1.000000
   78       -1.168530   1.000000
   79       -1.098824   1.000000
   80       -1.019089   1.000000
   81       -0.702534   1.000000
   82       -0.525062   1.000000
   83       -0.276626   1.000000
   84       -0.250842   1.000000
   85       -0.034036   1.000000
   86        0.013879   1.000000
   87        0.089559   1.000000
   88        0.103789   1.000000
   89        0.483508   1.000720
   90        0.541818   1.007482
   91        0.627318   1.034869
   92        0.865330  -0.035442
   93        0.895831  -0.026761
   94        0.921575  -0.015322
   95        0.969985  -0.003145
   96        1.075753  -0.000014
   97        1.157925  -0.000000
   98        1.345677  -0.000000
   99        1.390605  -0.000000
  100        1.392580  -0.000000
  101        1.399225  -0.000000
  102        1.495791  -0.000000
  103        1.535193  -0.000000
  104        1.539861  -0.000000
  105        1.550997  -0.000000
  106        1.910387  -0.000000
  107        1.930606  -0.000000
  108        1.980201  -0.000000
  109        1.990524  -0.000000
  110        1.994683  -0.000000
  111        2.056937  -0.000000
  112        2.137271  -0.000000
  113        2.139829  -0.000000
  114        2.169366  -0.000000
  115        2.284511  -0.000000
  116        2.316854  -0.000000
  117        2.349615  -0.000000
  118        2.566124  -0.000000
  119        2.620635  -0.000000
  120        2.751286  -0.000000

  0.1111111E+00  0.3694577E-15  0.1266495E-14  0.2020202E-01
    1      -13.164412   1.000000
    2      -11.877051   1.000000
    3      -11.798544   1.000000
    4      -11.255736   1.000000
    5      -10.559525   1.000000
    6      -10.438155   1.000000
    7      -10.264807   1.000000
    8      -10.201255   1.000000
    9      -10.060578   1.000000
   10       -9.885154   1.000000
   11       -9.878966   1.000000
   12       -9.490857   1.000000
   13       -9.356612   1.000000
   14       -9.356501   1.000000
   15       -8.916725   1.000000
   16       -8.905494   1.000000
   17       -7.988592   1.000000
   18       -7.902859   1.000000
   19       -7.893906   1.000000
   20       -7.623792   1.000000
   21       -7.619196   1.000000
   22       -7.398875   1.000000
   23       -7.387994   1.000000
   24       -7.199256   1.000000
   25       -7.196592   1.000000
   26       -7.066835   1.000000
   27       -6.553991   1.000000
   28       -6.085696   1.000000
   29       -5.551024   1.000000
   30       -5.496929   1.000000
   31       -5.405199   1.000000
   32       -5.183055   1.000000
   33       -4.923013   1.000000
   34       -4.882667   1.000000
   35       -4.789466   1.000000
   36       -4.742516   1.000000
   37       -4.437756   1.000000
   38       -4.410985   1.000000
   39       -4.198927   1.000000
   40       -4.196305   1.000000
   41       -4.173179   1.000000
   42       -3.947716   1.000000
   43       -3.939919   1.000000
   44       -3.895479   1.000000
   45       -3.757744   1.000000
   46       -3.749689   1.000000
   47       -3.719376   1.000000
   48       -3.647477   1.000000
   49       -3.601969   1.000000
   50       -3.550581   1.000000
   51       -3.545250   1.000000
   52       -3.329931   1.000000
   53       -3.186528   1.000000
   54       -3.113980   1.000000
   55       -3.075867   1.000000
   56       -3.019300   1.000000
   57       -3.001294   1.000000
   58       -2.932856   1.000000
   59       -2.735870   1.000000
   60       -2.681372   1.000000
   61       -2.666335   1.000000
   62       -2.544242   1.000000
   63       -2.521044   1.000000
   64       -2.469817   1.000000
   65       -2.398686   1.000000
   66       -2.306569   1.000000
   67       -2.191995   1.000000
   68       -2.184617   1.000000
   69       -2.165198   1.000000
   70       -2.074793   1.000000
   71       -1.689158   1.000000
   72       -1.577647   1.000000
   73       -1.459368   1.000000
   74       -1.412750   1.000000
   75       -1.373441   1.000000
   76       -1.352913   1.000000
   77       -1.211906   1.000000
   78       -1.206924   1.000000
   79       -1.121264   1.000000
   80       -0.987629   1.000000
   81       -0.614842   1.000000
   82       -0.564266   1.000000
   83       -0.312444   1.000000
   84       -0.282471   1.000000
   85       -0.050470   1.000000
   86        0.034365   1.000000
   87        0.097283   1.000000
   88        0.192760   1.000000
   89        0.444636   1.000098
   90        0.497727   1.001374
   91        0.599721   1.030170
   92        0.852958  -0.032179
   93        0.888696  -0.029876
   94        1.003593  -0.000741
   95        1.052184  -0.000058
   96        1.059746  -0.000037
   97        1.109422  -0.000002
   98        1.304154  -0.000000
   99        1.418276  -0.000000
  100        1.423038  -0.000000
  101        1.424114  -0.000000
  102        1.526151  -0.000000
  103        1.540027  -0.000000
  104        1.558901  -0.000000
  105        1.574443  -0.000000
  106        1.934145  -0.000000
  107        1.964517  -0.000000
  108        1.970220  -0.000000
  109        1.974881  -0.000000
  110        2.033764  -0.000000
  111        2.069373  -0.000000
  112        2.131736  -0.000000
  113        2.151433  -0.000000
  114        2.197973  -0.000000
  115        2.312235  -0.000000
  116        2.329977  -0.000000
  117        2.458112  -0.000000
  118        2.558260  -0.000000
  119        2.681589  -0.000000
  120        4.624977   0.000000

  0.2222222E+00  0.3681327E-15  0.1265439E-14  0.2020202E-01
    1      -13.089918   1.000000
    2      -12.114081   1.000000
    3      -11.734305   1.000000
    4      -11.184286   1.000000
    5      -10.531894   1.000000
    6      -10.480755   1.000000
    7      -10.239496   1.000000
    8      -10.206550   1.000000
    9      -10.049712   1.000000
   10       -9.870297   1.000000
   11       -9.853763   1.000000
   12       -9.521343   1.000000
   13       -9.373209   1.000000
   14       -9.355873   1.000000
   15       -8.863655   1.000000
   16       -8.852435   1.000000
   17       -7.947267   1.000000
   18       -7.912668   1.000000
   19       -7.870411   1.000000
   20       -7.676303   1.000000
   21       -7.672716   1.000000
   22       -7.489978   1.000000
   23       -7.481828   1.000000
   24       -7.225491   1.000000
   25       -7.213431   1.000000
   26       -6.909772   1.000000
   27       -6.759470   1.000000
   28       -6.064281   1.000000
   29       -5.493864   1.000000
   30       -5.461767   1.000000
   31       -5.322229   1.000000
   32       -5.173115   1.000000
   33       -5.064418   1.000000
   34       -4.858607   1.000000
   35       -4.749347   1.000000
   36       -4.743458   1.000000
   37       -4.453235   1.000000
   38       -4.293209   1.000000
   39       -4.194447   1.000000
   40       -4.170047   1.000000
   41       -4.099952   1.000000
   42       -3.956371   1.000000
   43       -3.869309   1.000000
   44       -3.825657   1.000000
   45       -3.803856   1.000000
   46       -3.694134   1.000000
   47       -3.652270   1.000000
   48       -3.630413   1.000000
   49       -3.542405   1.000000
   50       -3.531534   1.000000
   51       -3.483357   1.000000
   52       -3.324328   1.000000
   53       -3.184884   1.000000
   54       -3.122489   1.000000
   55       -3.088234   1.000000
   56       -3.071466   1.000000
   57       -3.010289   1.000000
   58       -2.938902   1.000000
   59       -2.755247   1.000000
   60       -2.693649   1.000000
   61       -2.665194   1.000000
   62       -2.586024   1.000000
   63       -2.546370   1.000000
   64       -2.457452   1.000000
   65       -2.429141   1.000000
   66       -2.369095   1.000000
   67       -2.235895   1.000000
   68       -2.100426   1.000000
   69       -2.077804   1.000000
   70       -2.030466   1.000000
   71       -1.860395   1.000000
   72       -1.565148   1.000000
   73       -1.558001   1.000000
   74       -1.483922   1.000000
   75       -1.425633   1.000000
   76       -1.420164   1.000000
   77       -1.306805   1.000000
   78       -1.204876   1.000000
   79       -1.166890   1.000000
   80       -0.846412   1.000000
   81       -0.728885   1.000000
   82       -0.408689   1.000000
   83       -0.407835   1.000000
   84       -0.349512   1.000000
   85       -0.030208   1.000000
   86        0.077731   1.000000
   87        0.119071   1.000000
   88        0.358097   1.000000
   89        0.380711   1.000002
   90        0.403593   1.000008
   91        0.528157   1.004661
   92        0.779847   0.216149
   93        0.982124  -0.001924
   94        1.045114  -0.000087
   95        1.053903  -0.000053
   96        1.093614  -0.000004
   97        1.186571  -0.000000
   98        1.327983  -0.000000
   99        1.402563  -0.000000
  100        1.408066  -0.000000
  101        1.514936  -0.000000
  102        1.557697  -0.000000
  103        1.574435  -0.000000
  104        1.619824  -0.000000
  105        1.658969  -0.000000
  106        1.903598  -0.000000
  107        1.976420  -0.000000
  108        1.983074  -0.000000
  109        2.060169  -0.000000
  110        2.080813  -0.000000
  111        2.103618  -0.000000
  112        2.153181  -0.000000
  113        2.160826  -0.000000
  114        2.255881  -0.000000
  115        2.354971  -0.000000
  116        2.392668  -0.000000
  117        2.395444  -0.000000
  118        2.544521  -0.000000
  119        2.687878  -0.000000
  120        2.745282  -0.000000

  0.3333333E+00  0.3672355E-15  0.1308213E-14  0.2020202E-01
    1      -12.967983   1.000000
    2      -12.364055   1.000000
    3      -11.631700   1.000000
    4      -11.227624   1.000000
    5      -10.496815   1.000000
    6      -10.482567   1.000000
    7      -10.222571   1.000000
    8      -10.212912   1.000000
    9       -9.998083   1.000000
   10       -9.853591   1.000000
   11       -9.826471   1.000000
   12       -9.609854   1.000000
   13       -9.381644   1.000000
   14       -9.361674   1.000000
   15       -8.783156   1.000000
   16       -8.774728   1.000000
   17       -7.963387   1.000000
   18       -7.963155   1.000000
   19       -7.788223   1.000000
   20       -7.747688   1.000000
   21       -7.725755   1.000000
   22       -7.536489   1.000000
   23       -7.494321   1.000000
   24       -7.279087   1.000000
   25       -7.270212   1.000000
   26       -7.007712   1.000000
   27       -6.690824   1.000000
   28       -5.943521   1.000000
   29       -5.702300   1.000000
   30       -5.450933   1.000000
   31       -5.437657   1.000000
   32       -5.205633   1.000000
   33       -4.881860   1.000000
   34       -4.788647   1.000000
   35       -4.675673   1.000000
   36       -4.656636   1.000000
   37       -4.360764   1.000000
   38       -4.321302   1.000000
   39       -4.120613   1.000000
   40       -4.069362   1.000000
   41       -4.047176   1.000000
   42       -4.033797   1.000000
   43       -3.909522   1.000000
   44       -3.849466   1.000000
   45       -3.791017   1.000000
   46       -3.628175   1.000000
   47       -3.627528   1.000000
   48       -3.538428   1.000000
   49       -3.525409   1.000000
   50       -3.452370   1.000000
   51       -3.401885   1.000000
   52       -3.345530   1.000000
   53       -3.255719   1.000000
   54       -3.166536   1.000000
   55       -3.072836   1.000000
   56       -3.059591   1.000000
   57       -2.924700   1.000000
   58       -2.915277   1.000000
   59       -2.787547   1.000000
   60       -2.685256   1.000000
   61       -2.682160   1.000000
   62       -2.635268   1.000000
   63       -2.594467   1.000000
   64       -2.504426   1.000000
   65       -2.441771   1.000000
   66       -2.374705   1.000000
   67       -2.295086   1.000000
   68       -2.080249   1.000000
   69       -1.999723   1.000000
   70       -1.983258   1.000000
   71       -1.962663   1.000000
   72       -1.683811   1.000000
   73       -1.660280   1.000000
   74       -1.498196   1.000000
   75       -1.488877   1.000000
   76       -1.421131   1.000000
   77       -1.400098   1.000000
   78       -1.215970   1.000000
   79       -1.206707   1.000000
   80       -0.919167   1.000000
   81       -0.636842   1.000000
   82       -0.518978   1.000000
   83       -0.501674   1.000000
   84       -0.189599   1.000000
   85       -0.014416   1.000000
   86        0.106090   1.000000
   87        0.204870   1.000000
   88        0.280282   1.000000
   89        0.307423   1.000000
   90        0.468765   1.000351
   91        0.618683   1.035350
   92        0.634088   1.032518
   93        0.971981  -0.002908
   94        1.078804  -0.000012
   95        1.079557  -0.000011
   96        1.136912  -0.000000
   97        1.213054  -0.000000
   98        1.358291  -0.000000
   99        1.367831  -0.000000
  100        1.582597  -0.000000
  101        1.592231  -0.000000
  102        1.630851  -0.000000
  103        1.658260  -0.000000
  104        1.664195  -0.000000
  105        1.725637  -0.000000
  106        1.781475  -0.000000
  107        1.983184  -0.000000
  108        2.023222  -0.000000
  109        2.105189  -0.000000
  110        2.156970  -0.000000
  111        2.169110  -0.000000
  112        2.196886  -0.000000
  113        2.238729  -0.000000
  114        2.349949  -0.000000
  115        2.430854  -0.000000
  116        2.470074  -0.000000
  117        2.511565  -0.000000
  118        2.693902  -0.000000
  119        2.964081  -0.000000
  120        4.393528   0.000000

  0.4444444E+00  0.3795814E-15  0.1235432E-14  0.2020202E-01
    1      -12.802173   1.000000
    2      -12.598039   1.000000
    3      -11.499063   1.000000
    4      -11.352927   1.000000
    5      -10.469932   1.000000
    6      -10.466280   1.000000
    7      -10.219007   1.000000
    8      -10.217490   1.000000
    9       -9.909498   1.000000
   10       -9.852378   1.000000
   11       -9.798133   1.000000
   12       -9.726031   1.000000
   13       -9.380337   1.000000
   14       -9.372146   1.000000
   15       -8.710391   1.000000
   16       -8.707234   1.000000
   17       -8.044208   1.000000
   18       -8.042757   1.000000
   19       -7.756130   1.000000
   20       -7.752437   1.000000
   21       -7.647393   1.000000
   22       -7.575189   1.000000
   23       -7.426893   1.000000
   24       -7.324367   1.000000
   25       -7.319642   1.000000
   26       -7.242460   1.000000
   27       -6.415647   1.000000
   28       -6.080545   1.000000
   29       -5.728326   1.000000
   30       -5.469874   1.000000
   31       -5.427658   1.000000
   32       -5.423977   1.000000
   33       -4.687313   1.000000
   34       -4.645793   1.000000
   35       -4.575489   1.000000
   36       -4.533654   1.000000
   37       -4.405817   1.000000
   38       -4.340062   1.000000
   39       -4.121249   1.000000
   40       -4.120245   1.000000
   41       -4.055001   1.000000
   42       -3.967221   1.000000
   43       -3.899475   1.000000
   44       -3.883373   1.000000
   45       -3.695047   1.000000
   46       -3.670327   1.000000
   47       -3.649585   1.000000
   48       -3.580725   1.000000
   49       -3.423695   1.000000
   50       -3.389576   1.000000
   51       -3.385339   1.000000
   52       -3.347708   1.000000
   53       -3.271464   1.000000
   54       -3.195356   1.000000
   55       -3.035869   1.000000
   56       -3.003089   1.000000
   57       -2.910082   1.000000
   58       -2.859904   1.000000
   59       -2.788928   1.000000
   60       -2.722591   1.000000
   61       -2.710871   1.000000
   62       -2.663645   1.000000
   63       -2.613141   1.000000
   64       -2.586282   1.000000
   65       -2.393458   1.000000
   66       -2.350753   1.000000
   67       -2.298884   1.000000
   68       -2.195710   1.000000
   69       -2.046282   1.000000
   70       -2.026662   1.000000
   71       -1.838369   1.000000
   72       -1.748012   1.000000
   73       -1.676715   1.000000
   74       -1.559648   1.000000
   75       -1.521119   1.000000
   76       -1.517297   1.000000
   77       -1.284380   1.000000
   78       -1.229499   1.000000
   79       -1.216337   1.000000
   80       -1.110385   1.000000
   81       -0.593172   1.000000
   82       -0.582898   1.000000
   83       -0.412400   1.000000
   84       -0.226094   1.000000
   85        0.019976   1.000000
   86        0.085345   1.000000
   87        0.238666   1.000000
   88        0.246343   1.000000
   89        0.439149   1.000072
   90        0.463254   1.000265
   91        0.518825   1.003283
   92        0.719264   0.701265
   93        0.868472  -0.035389
   94        1.053988  -0.000052
   95        1.123214  -0.000001
   96        1.135594  -0.000000
   97        1.307326  -0.000000
   98        1.314310  -0.000000
   99        1.452138  -0.000000
  100        1.605364  -0.000000
  101        1.611520  -0.000000
  102        1.627049  -0.000000
  103        1.701734  -0.000000
  104        1.708830  -0.000000
  105        1.791500  -0.000000
  106        1.899948  -0.000000
  107        1.967966  -0.000000
  108        2.080258  -0.000000
  109        2.090040  -0.000000
  110        2.192217  -0.000000
  111        2.214323  -0.000000
  112        2.272365  -0.000000
  113        2.301317  -0.000000
  114        2.319004  -0.000000
  115        2.357674  -0.000000
  116        2.394501  -0.000000
  117        2.547846  -0.000000
  118        2.696827  -0.000000
  119        2.723016  -0.000000
  120        2.941641  -0.000000

  0.3742002E-15  0.9090909E-01  0.1339361E-14  0.2020202E-01
    1      -13.156824   1.000000
    2      -11.791718   1.000000
    3      -11.758997   1.000000
    4      -11.294013   1.000000
    5      -10.555455   1.000000
    6      -10.467200   1.000000
    7      -10.419093   1.000000
    8      -10.395083   1.000000
    9      -10.137627   1.000000
   10       -9.833950   1.000000
   11       -9.747377   1.000000
   12       -9.450959   1.000000
   13       -9.355911   1.000000
   14       -9.338904   1.000000
   15       -8.880098   1.000000
   16       -8.876880   1.000000
   17       -8.021328   1.000000
   18       -7.938088   1.000000
   19       -7.914068   1.000000
   20       -7.793931   1.000000
   21       -7.747500   1.000000
   22       -7.183094   1.000000
   23       -7.106276   1.000000
   24       -7.086735   1.000000
   25       -7.015737   1.000000
   26       -6.968823   1.000000
   27       -6.511378   1.000000
   28       -6.048851   1.000000
   29       -5.608122   1.000000
   30       -5.518697   1.000000
   31       -5.472847   1.000000
   32       -5.222386   1.000000
   33       -5.056820   1.000000
   34       -4.795885   1.000000
   35       -4.734249   1.000000
   36       -4.589261   1.000000
   37       -4.450619   1.000000
   38       -4.410983   1.000000
   39       -4.298503   1.000000
   40       -4.228784   1.000000
   41       -4.190655   1.000000
   42       -4.094676   1.000000
   43       -4.085718   1.000000
   44       -3.924901   1.000000
   45       -3.872468   1.000000
   46       -3.834718   1.000000
   47       -3.709472   1.000000
   48       -3.642760   1.000000
   49       -3.617929   1.000000
   50       -3.591322   1.000000
   51       -3.515679   1.000000
   52       -3.341619   1.000000
   53       -3.279799   1.000000
   54       -3.201324   1.000000
   55       -3.117210   1.000000
   56       -2.981481   1.000000
   57       -2.960753   1.000000
   58       -2.886367   1.000000
   59       -2.757439   1.000000
   60       -2.660576   1.000000
   61       -2.628799   1.000000
   62       -2.564566   1.000000
   63       -2.451234   1.000000
   64       -2.450501   1.000000
   65       -2.422317   1.000000
   66       -2.333004   1.000000
   67       -2.263836   1.000000
   68       -2.174980   1.000000
   69       -2.060037   1.000000
   70       -2.048749   1.000000
   71       -1.825732   1.000000
   72       -1.596950   1.000000
   73       -1.387996   1.000000
   74       -1.375503   1.000000
   75       -1.348154   1.000000
   76       -1.298432   1.000000
   77       -1.213163   1.000000
   78       -1.157402   1.000000
   79       -1.035818   1.000000
   80       -1.004291   1.000000
   81       -0.727323   1.000000
   82       -0.464306   1.000000
   83       -0.329067   1.000000
   84       -0.240304   1.000000
   85       -0.101558   1.000000
   86       -0.025977   1.000000
   87        0.035905   1.000000
   88        0.044180   1.000000
   89        0.438807   1.000070
   90        0.543051   1.007790
   91        0.655068   1.009232
   92        0.790295   0.150051
   93        0.832688  -0.009332
   94        0.847334  -0.028375
   95        0.943514  -0.008082
   96        1.069474  -0.000021
   97        1.151810  -0.000000
   98        1.235129  -0.000000
   99        1.305213  -0.000000
  100        1.408170  -0.000000
  101        1.502542  -0.000000
  102        1.557974  -0.000000
  103        1.588826  -0.000000
  104        1.615944  -0.000000
  105        1.742595  -0.000000
  106        1.877643  -0.000000
  107        1.909841  -0.000000
  108        1.945981  -0.000000
  109        2.000549  -0.000000
  110        2.015691  -0.000000
  111        2.081280  -0.000000
  112        2.118573  -0.000000
  113        2.160307  -0.000000
  114        2.188528  -0.000000
  115        2.303776  -0.000000
  116        2.353222  -0.000000
  117        2.362235  -0.000000
  118        2.534754  -0.000000
  119        2.600188  -0.000000
  120        2.720946  -0.000000

  0.1111111E+00  0.9090909E-01  0.1250028E-14  0.2020202E-01
    1      -13.111483   1.000000
    2      -11.949254   1.000000
    3      -11.752593   1.000000
    4      -11.194477   1.000000
    5      -10.534405   1.000000
    6      -10.533510   1.000000
    7      -10.436270   1.000000
    8      -10.360682   1.000000
    9      -10.085093   1.000000
   10       -9.827297   1.000000
   11       -9.719947   1.000000
   12       -9.463696   1.000000
   13       -9.400665   1.000000
   14       -9.368155   1.000000
   15       -8.850114   1.000000
   16       -8.806984   1.000000
   17       -8.051540   1.000000
   18       -7.924026   1.000000
   19       -7.876570   1.000000
   20       -7.875935   1.000000
   21       -7.734595   1.000000
   22       -7.336725   1.000000
   23       -7.149161   1.000000
   24       -7.013184   1.000000
   25       -6.977459   1.000000
   26       -6.948045   1.000000
   27       -6.636291   1.000000
   28       -6.060263   1.000000
   29       -5.615871   1.000000
   30       -5.453436   1.000000
   31       -5.294778   1.000000
   32       -5.203547   1.000000
   33       -5.090078   1.000000
   34       -4.934156   1.000000
   35       -4.755700   1.000000
   36       -4.625044   1.000000
   37       -4.427630   1.000000
   38       -4.361704   1.000000
   39       -4.259602   1.000000
   40       -4.220824   1.000000
   41       -4.183564   1.000000
   42       -4.088615   1.000000
   43       -3.971645   1.000000
   44       -3.869633   1.000000
   45       -3.845321   1.000000
   46       -3.756244   1.000000
   47       -3.688010   1.000000
   48       -3.648518   1.000000
   49       -3.627454   1.000000
   50       -3.547850   1.000000
   51       -3.508512   1.000000
   52       -3.353672   1.000000
   53       -3.253883   1.000000
   54       -3.198594   1.000000
   55       -3.056115   1.000000
   56       -3.047663   1.000000
   57       -2.978010   1.000000
   58       -2.861878   1.000000
   59       -2.801118   1.000000
   60       -2.686865   1.000000
   61       -2.655134   1.000000
   62       -2.610685   1.000000
   63       -2.491384   1.000000
   64       -2.445532   1.000000
   65       -2.426842   1.000000
   66       -2.308920   1.000000
   67       -2.258697   1.000000
   68       -2.117987   1.000000
   69       -2.077976   1.000000
   70       -2.066364   1.000000
   71       -1.879150   1.000000
   72       -1.561742   1.000000
   73       -1.496798   1.000000
   74       -1.456234   1.000000
   75       -1.391947   1.000000
   76       -1.364607   1.000000
   77       -1.215760   1.000000
   78       -1.208330   1.000000
   79       -1.021655   1.000000
   80       -0.910148   1.000000
   81       -0.760839   1.000000
   82       -0.459569   1.000000
   83       -0.420518   1.000000
   84       -0.277302   1.000000
   85       -0.100494   1.000000
   86       -0.017313   1.000000
   87        0.157135   1.000000
   88        0.182439   1.000000
   89        0.389406   1.000003
   90        0.464339   1.000280
   91        0.639811   1.028827
   92        0.781491   0.205103
   93        0.833280  -0.010396
   94        0.979866  -0.002114
   95        1.018583  -0.000358
   96        1.038965  -0.000122
   97        1.136172  -0.000000
   98        1.201328  -0.000000
   99        1.256496  -0.000000
  100        1.522754  -0.000000
  101        1.554280  -0.000000
  102        1.570434  -0.000000
  103        1.588640  -0.000000
  104        1.676779  -0.000000
  105        1.701856  -0.000000
  106        1.874138  -0.000000
  107        1.964954  -0.000000
  108        1.969100  -0.000000
  109        1.999765  -0.000000
  110        2.018420  -0.000000
  111        2.107089  -0.000000
  112        2.118821  -0.000000
  113        2.211266  -0.000000
  114        2.215701  -0.000000
  115        2.331749  -0.000000
  116        2.386282  -0.000000
  117        2.415713  -0.000000
  118        2.539941  -0.000000
  119        2.715666  -0.000000
  120        2.769115  -0.000000

  0.2222222E+00  0.9090909E-01  0.1327369E-14  0.2020202E-01
    1      -13.017585   1.000000
    2      -12.194420   1.000000
    3      -11.672822   1.000000
    4      -11.167499   1.000000
    5      -10.585924   1.000000
    6      -10.502176   1.000000
    7      -10.464321   1.000000
    8      -10.304754   1.000000
    9      -10.007244   1.000000
   10       -9.793686   1.000000
   11       -9.669908   1.000000
   12       -9.535906   1.000000
   13       -9.470288   1.000000
   14       -9.404073   1.000000
   15       -8.771970   1.000000
   16       -8.697133   1.000000
   17       -8.093057   1.000000
   18       -8.056258   1.000000
   19       -7.803864   1.000000
   20       -7.798467   1.000000
   21       -7.763217   1.000000
   22       -7.499519   1.000000
   23       -7.248376   1.000000
   24       -7.015271   1.000000
   25       -6.982671   1.000000
   26       -6.818690   1.000000
   27       -6.797985   1.000000
   28       -6.006666   1.000000
   29       -5.632838   1.000000
   30       -5.448219   1.000000
   31       -5.375822   1.000000
   32       -5.128177   1.000000
   33       -5.030877   1.000000
   34       -4.960181   1.000000
   35       -4.766982   1.000000
   36       -4.552231   1.000000
   37       -4.421102   1.000000
   38       -4.294189   1.000000
   39       -4.248739   1.000000
   40       -4.167369   1.000000
   41       -4.139066   1.000000
   42       -4.066517   1.000000
   43       -3.895975   1.000000
   44       -3.815662   1.000000
   45       -3.808017   1.000000
   46       -3.696339   1.000000
   47       -3.674588   1.000000
   48       -3.638305   1.000000