   69   69    1    1
  0.2263277E+02  0.1053953E-08  0.6141200E-09  0.2412750E-08  0.5000000E-15
   1.0000000000000000E-004
  CAR 
 Name                                    
    264     23    168

  0.3742002E-15  0.3742002E-15  0.1262379E-14  0.2222222E-01
    1      -14.040731   1.000000
    2      -13.050180   1.000000
    3      -12.898166   1.000000
    4      -12.481902   1.000000
    5      -11.934068   1.000000
    6      -11.729856   1.000000
    7      -11.714693   1.000000
    8      -11.645424   1.000000
    9      -11.530808   1.000000
   10      -11.308437   1.000000
   11      -11.180621   1.000000
   12      -11.038802   1.000000
   13      -10.917698   1.000000
   14      -10.494112   1.000000
   15      -10.276132   1.000000
   16      -10.234416   1.000000
   17      -10.174496   1.000000
   18       -9.984758   1.000000
   19       -9.932497   1.000000
   20       -9.733532   1.000000
   21       -9.667782   1.000000
   22       -9.520131   1.000000
   23       -9.218434   1.000000
   24       -9.065834   1.000000
   25       -8.972114   1.000000
   26       -8.784013   1.000000
   27       -8.518595   1.000000
   28       -8.360635   1.000000
   29       -8.253381   1.000000
   30       -8.181958   1.000000
   31       -8.112010   1.000000
   32       -7.871664   1.000000
   33       -7.584258   1.000000
   34       -7.280154   1.000000
   35       -7.156689   1.000000
   36       -7.132476   1.000000
   37       -7.046044   1.000000
   38       -6.873370   1.000000
   39       -6.799210   1.000000
   40       -6.730801   1.000000
   41       -6.720654   1.000000
   42       -6.649841   1.000000
   43       -6.543385   1.000000
   44       -6.450120   1.000000
   45       -6.404040   1.000000
   46       -6.348493   1.000000
   47       -6.155372   1.000000
   48       -6.096477   1.000000
   49       -6.078182   1.000000
   50       -5.893246   1.000000
   51       -5.827997   1.000000
   52       -5.764566   1.000000
   53       -5.675953   1.000000
   54       -5.630469   1.000000
   55       -5.566239   1.000000
   56       -5.457938   1.000000
   57       -5.267744   1.000000
   58       -5.255502   1.000000
   59       -5.178711   1.000000
   60       -5.098422   1.000000
   61       -4.955061   1.000000
   62       -4.799388   1.000000
   63       -4.761785   1.000000
   64       -4.682652   1.000000
   65       -4.647617   1.000000
   66       -4.619073   1.000000
   67       -4.567904   1.000000
   68       -4.546795   1.000000
   69       -4.521251   1.000000
   70       -4.375250   1.000000
   71       -4.315023   1.000000
   72       -4.297895   1.000000
   73       -4.272189   1.000000
   74       -4.100587   1.000000
   75       -4.071208   1.000000
   76       -4.018123   1.000000
   77       -3.886431   1.000000
   78       -3.827760   1.000000
   79       -3.813845   1.000000
   80       -3.717571   1.000000
   81       -3.675423   1.000000
   82       -3.525380   1.000000
   83       -3.427408   1.000000
   84       -3.424535   1.000000
   85       -3.398636   1.000000
   86       -3.352681   1.000000
   87       -3.291602   1.000000
   88       -3.230200   1.000000
   89       -3.146053   1.000000
   90       -3.134590   1.000000
   91       -2.990300   1.000000
   92       -2.980677   1.000000
   93       -2.899950   1.000000
   94       -2.763797   1.000000
   95       -2.727883   1.000000
   96       -2.715006   1.000000
   97       -2.645505   1.000000
   98       -2.511082   1.000000
   99       -2.494413   1.000000
  100       -2.432278   1.000000
  101       -2.389507   1.000000
  102       -2.385809   1.000000
  103       -2.225246   1.000000
  104       -2.220915   1.000000
  105       -2.215453   1.000000
  106       -2.157621   1.000000
  107       -2.100724   1.000000
  108       -2.085726   1.000000
  109       -2.039910   1.000000
  110       -2.027262   1.000000
  111       -1.849860   1.000000
  112       -1.782075   1.000000
  113       -1.763636   1.000000
  114       -1.541308   1.000000
  115       -1.384835   1.000000
  116       -1.372519   1.000000
  117       -1.225635   1.000000
  118       -1.174373   1.000000
  119       -1.080953   1.000000
  120       -0.989120   1.000000
  121       -0.968896   1.000000
  122       -0.918588   1.000000
  123       -0.704345   1.000001
  124       -0.556030   1.000127
  125       -0.515732   1.000364
  126       -0.373861   1.007148
  127       -0.347155   1.010874
  128       -0.242228   1.032613
  129       -0.201990   1.035047
  130       -0.108150   0.961815
  131       -0.063856   0.861261
  132        0.002548   0.627094
  133        0.013651   0.581330
  134        0.125892   0.149959
  135        0.158225   0.068546
  136        0.195389   0.006924
  137        0.203188  -0.001987
  138        0.256217  -0.033364
  139        0.308570  -0.032546
  140        0.360729  -0.021283
  141        0.549430  -0.000795
  142        0.606275  -0.000193
  143        0.693778  -0.000015
  144        0.719680  -0.000007
  145        0.795089  -0.000000
  146        0.885211  -0.000000
  147        0.940646  -0.000000
  148        0.988183  -0.000000
  149        1.052909  -0.000000
  150        1.109508  -0.000000
  151        1.116159  -0.000000
  152        1.149655  -0.000000
  153        1.206107  -0.000000
  154        1.216715  -0.000000
  155        1.248089  -0.000000
  156        1.267900  -0.000000
  157        1.308270  -0.000000
  158        1.376320  -0.000000
  159        1.408525  -0.000000
  160        1.423714  -0.000000
  161        1.508632  -0.000000
  162        1.563943  -0.000000
  163        1.597928  -0.000000
  164        1.834859  -0.000000
  165        1.883325  -0.000000
  166        2.012528  -0.000000
  167        2.440112  -0.000000
  168        2.479740  -0.000000

  0.2000000E+00  0.3742002E-15  0.1262379E-14  0.4444444E-01
    1      -13.999738   1.000000
    2      -13.297008   1.000000
    3      -12.761010   1.000000
    4      -12.259790   1.000000
    5      -12.037645   1.000000
    6      -11.924509   1.000000
    7      -11.753902   1.000000
    8      -11.497732   1.000000
    9      -11.323869   1.000000
   10      -11.301609   1.000000
   11      -11.144658   1.000000
   12      -10.966348   1.000000
   13      -10.908642   1.000000
   14      -10.643877   1.000000
   15      -10.562960   1.000000
   16      -10.384886   1.000000
   17      -10.276446   1.000000
   18       -9.968850   1.000000
   19       -9.770198   1.000000
   20       -9.702986   1.000000
   21       -9.508445   1.000000
   22       -9.481190   1.000000
   23       -9.319399   1.000000
   24       -9.058472   1.000000
   25       -9.023801   1.000000
   26       -8.742888   1.000000
   27       -8.342828   1.000000
   28       -8.243068   1.000000
   29       -8.155347   1.000000
   30       -8.090904   1.000000
   31       -8.079409   1.000000
   32       -8.042391   1.000000
   33       -7.495391   1.000000
   34       -7.461984   1.000000
   35       -7.280306   1.000000
   36       -7.223238   1.000000
   37       -7.163895   1.000000
   38       -6.951091   1.000000
   39       -6.822811   1.000000
   40       -6.792355   1.000000
   41       -6.678587   1.000000
   42       -6.649379   1.000000
   43       -6.526192   1.000000
   44       -6.440039   1.000000
   45       -6.392516   1.000000
   46       -6.306650   1.000000
   47       -6.121373   1.000000
   48       -6.073703   1.000000
   49       -5.978427   1.000000
   50       -5.917956   1.000000
   51       -5.807862   1.000000
   52       -5.745697   1.000000
   53       -5.608590   1.000000
   54       -5.587777   1.000000
   55       -5.454961   1.000000
   56       -5.428712   1.000000
   57       -5.375540   1.000000
   58       -5.259651   1.000000
   59       -5.215588   1.000000
   60       -5.080485   1.000000
   61       -4.925269   1.000000
   62       -4.865498   1.000000
   63       -4.768702   1.000000
   64       -4.757449   1.000000
   65       -4.652092   1.000000
   66       -4.632252   1.000000
   67       -4.544697   1.000000
   68       -4.475689   1.000000
   69       -4.462602   1.000000
   70       -4.429963   1.000000
   71       -4.306574   1.000000
   72       -4.302218   1.000000
   73       -4.215201   1.000000
   74       -4.108439   1.000000
   75       -4.072264   1.000000
   76       -3.945829   1.000000
   77       -3.922357   1.000000
   78       -3.898463   1.000000
   79       -3.840875   1.000000
   80       -3.730169   1.000000
   81       -3.609529   1.000000
   82       -3.522019   1.000000
   83       -3.497411   1.000000
   84       -3.462988   1.000000
   85       -3.389244   1.000000
   86       -3.374527   1.000000
   87       -3.302524   1.000000
   88       -3.212971   1.000000
   89       -3.172550   1.000000
   90       -3.101196   1.000000
   91       -3.065633   1.000000
   92       -3.058214   1.000000
   93       -2.917354   1.000000
   94       -2.776576   1.000000
   95       -2.720638   1.000000
   96       -2.627784   1.000000
   97       -2.609999   1.000000
   98       -2.543870   1.000000
   99       -2.506320   1.000000
  100       -2.447618   1.000000
  101       -2.384886   1.000000
  102       -2.318100   1.000000
  103       -2.258246   1.000000
  104       -2.218876   1.000000
  105       -2.161119   1.000000
  106       -2.109766   1.000000
  107       -2.081337   1.000000
  108       -2.045518   1.000000
  109       -2.007763   1.000000
  110       -1.956828   1.000000
  111       -1.839279   1.000000
  112       -1.758112   1.000000
  113       -1.691566   1.000000
  114       -1.534687   1.000000
  115       -1.420937   1.000000
  116       -1.397607   1.000000
  117       -1.311091   1.000000
  118       -1.186892   1.000000
  119       -1.088462   1.000000
  120       -1.030481   1.000000
  121       -0.994639   1.000000
  122       -0.918729   1.000000
  123       -0.752474   1.000000
  124       -0.613473   1.000024
  125       -0.500122   1.000536
  126       -0.407752   1.003922
  127       -0.364282   1.008355
  128       -0.296750   1.020836
  129       -0.266340   1.027805
  130       -0.155944   1.018378
  131       -0.130731   0.994633
  132       -0.046184   0.807622
  133       -0.011866   0.684536
  134        0.113708   0.187283
  135        0.175480   0.035824
  136        0.211385  -0.009999
  137        0.227298  -0.021928
  138        0.352688  -0.023131
  139        0.363624  -0.020625
  140        0.440608  -0.007053
  141        0.511688  -0.001838
  142        0.648613  -0.000060
  143        0.663096  -0.000039
  144        0.769327  -0.000001
  145        0.877935  -0.000000
  146        0.927018  -0.000000
  147        0.947875  -0.000000
  148        0.974813  -0.000000
  149        1.013904  -0.000000
  150        1.063282  -0.000000
  151        1.109334  -0.000000
  152        1.155553  -0.000000
  153        1.233143  -0.000000
  154        1.251234  -0.000000
  155        1.286851  -0.000000
  156        1.309045  -0.000000
  157        1.355177  -0.000000
  158        1.403006  -0.000000
  159        1.439213  -0.000000
  160        1.503979  -0.000000
  161        1.587863  -0.000000
  162        1.598092  -0.000000
  163        1.612077  -0.000000
  164        1.824973  -0.000000
  165        1.923455  -0.000000
  166        1.997095  -0.000000
  167        2.242734  -0.000000
  168        2.576283  -0.000000

  0.4000000E+00  0.3742002E-15  0.1262379E-14  0.4444444E-01
    1      -13.895584   1.000000
    2      -13.554662   1.000000
    3      -12.634217   1.000000
    4      -12.303990   1.000000
    5      -11.903551   1.000000
    6      -11.807696   1.000000
    7      -11.780671   1.000000
    8      -11.458224   1.000000
    9      -11.336808   1.000000
   10      -11.233263   1.000000
   11      -11.070716   1.000000
   12      -11.032010   1.000000
   13      -10.899844   1.000000
   14      -10.758702   1.000000
   15      -10.673653   1.000000
   16      -10.548490   1.000000
   17      -10.292043   1.000000
   18      -10.065895   1.000000
   19       -9.934406   1.000000
   20       -9.762029   1.000000
   21       -9.479299   1.000000
   22       -9.356682   1.000000
   23       -9.148749   1.000000
   24       -8.979221   1.000000
   25       -8.941132   1.000000
   26       -8.750213   1.000000
   27       -8.382636   1.000000
   28       -8.148962   1.000000
   29       -7.945827   1.000000
   30       -7.910893   1.000000
   31       -7.888084   1.000000
   32       -7.793086   1.000000
   33       -7.726956   1.000000
   34       -7.673760   1.000000
   35       -7.505804   1.000000
   36       -7.482541   1.000000
   37       -7.254098   1.000000
   38       -7.205526   1.000000
   39       -7.055042   1.000000
   40       -6.755729   1.000000
   41       -6.598690   1.000000
   42       -6.576519   1.000000
   43       -6.510902   1.000000
   44       -6.433725   1.000000
   45       -6.207414   1.000000
   46       -6.149179   1.000000
   47       -6.088066   1.000000
   48       -6.072448   1.000000
   49       -5.977528   1.000000
   50       -5.964454   1.000000
   51       -5.757596   1.000000
   52       -5.750157   1.000000
   53       -5.596374   1.000000
   54       -5.581089   1.000000
   55       -5.506398   1.000000
   56       -5.385592   1.000000
   57       -5.298985   1.000000
   58       -5.191584   1.000000
   59       -5.184955   1.000000
   60       -5.122069   1.000000
   61       -4.947607   1.000000
   62       -4.820177   1.000000
   63       -4.805145   1.000000
   64       -4.733965   1.000000
   65       -4.700887   1.000000
   66       -4.644567   1.000000
   67       -4.575169   1.000000
   68       -4.515300   1.000000
   69       -4.461324   1.000000
   70       -4.367977   1.000000
   71       -4.349324   1.000000
   72       -4.192844   1.000000
   73       -4.158463   1.000000
   74       -4.113540   1.000000
   75       -4.020123   1.000000
   76       -3.996274   1.000000
   77       -3.966001   1.000000
   78       -3.950057   1.000000
   79       -3.777902   1.000000
   80       -3.722994   1.000000
   81       -3.640079   1.000000
   82       -3.595807   1.000000
   83       -3.548399   1.000000
   84       -3.514325   1.000000
   85       -3.434332   1.000000
   86       -3.327542   1.000000
   87       -3.296594   1.000000
   88       -3.216069   1.000000
   89       -3.205454   1.000000
   90       -3.170383   1.000000
   91       -3.049947   1.000000
   92       -3.019710   1.000000
   93       -2.956330   1.000000
   94       -2.924280   1.000000
   95       -2.753678   1.000000
   96       -2.643735   1.000000
   97       -2.603067   1.000000
   98       -2.530662   1.000000
   99       -2.481598   1.000000
  100       -2.384018   1.000000
  101       -2.378290   1.000000
  102       -2.317343   1.000000
  103       -2.282547   1.000000
  104       -2.094951   1.000000
  105       -2.078596   1.000000
  106       -2.055811   1.000000
  107       -1.984756   1.000000
  108       -1.957220   1.000000
  109       -1.939085   1.000000
  110       -1.841120   1.000000
  111       -1.731251   1.000000
  112       -1.721586   1.000000
  113       -1.641552   1.000000
  114       -1.584313   1.000000
  115       -1.531193   1.000000
  116       -1.435634   1.000000
  117       -1.404190   1.000000
  118       -1.270018   1.000000
  119       -1.159417   1.000000
  120       -1.084850   1.000000
  121       -1.010347   1.000000
  122       -0.875285   1.000000
  123       -0.832271   1.000000
  124       -0.708207   1.000001
  125       -0.553416   1.000136
  126       -0.434711   1.002312
  127       -0.409851   1.003770
  128       -0.381949   1.006236
  129       -0.358501   1.009153
  130       -0.241878   1.032671
  131       -0.203650   1.035175
  132       -0.092920   0.932794
  133        0.062463   0.376703
  134        0.116799   0.177487
  135        0.182104   0.025188
  136        0.227683  -0.022161
  137        0.255964  -0.033312
  138        0.368846  -0.019455
  139        0.438512  -0.007303
  140        0.484131  -0.003213
  141        0.624123  -0.000119
  142        0.636774  -0.000084
  143        0.730700  -0.000005
  144        0.795656  -0.000000
  145        0.843046  -0.000000
  146        0.875380  -0.000000
  147        0.997158  -0.000000
  148        1.032654  -0.000000
  149        1.102821  -0.000000
  150        1.123855  -0.000000
  151        1.141917  -0.000000
  152        1.188191  -0.000000
  153        1.197402  -0.000000
  154        1.259148  -0.000000
  155        1.286315  -0.000000
  156        1.318757  -0.000000
  157        1.362499  -0.000000
  158        1.432430  -0.000000
  159        1.462143  -0.000000
  160        1.539230  -0.000000
  161        1.590568  -0.000000
  162        1.691629  -0.000000
  163        1.851809  -0.000000
  164        1.932562  -0.000000
  165        1.987820  -0.000000
  166        2.081922  -0.000000
  167        2.390791  -0.000000
  168        2.586978  -0.000000

  0.3742002E-15  0.1111111E+00  0.1262379E-14  0.4444444E-01
    1      -13.995180   1.000000
    2      -13.011564   1.000000
    3      -12.863427   1.000000
    4      -12.451950   1.000000
    5      -12.029418   1.000000
    6      -11.753633   1.000000
    7      -11.693927   1.000000
    8      -11.623321   1.000000
    9      -11.575341   1.000000
   10      -11.328641   1.000000
   11      -11.188759   1.000000
   12      -11.014199   1.000000
   13      -10.942905   1.000000
   14      -10.491648   1.000000
   15      -10.293575   1.000000
   16      -10.200390   1.000000
   17      -10.167935   1.000000
   18       -9.998143   1.000000
   19       -9.904606   1.000000
   20       -9.761460   1.000000
   21       -9.661786   1.000000
   22       -9.519280   1.000000
   23       -9.210098   1.000000
   24       -9.099487   1.000000
   25       -8.987413   1.000000
   26       -8.760649   1.000000
   27       -8.506168   1.000000
   28       -8.362553   1.000000
   29       -8.269904   1.000000
   30       -8.210460   1.000000
   31       -7.962853   1.000000
   32       -7.879768   1.000000
   33       -7.673895   1.000000
   34       -7.385590   1.000000
   35       -7.261566   1.000000
   36       -7.101020   1.000000
   37       -7.020236   1.000000
   38       -6.809151   1.000000
   39       -6.772043   1.000000
   40       -6.746335   1.000000
   41       -6.694905   1.000000
   42       -6.605082   1.000000
   43       -6.523302   1.000000
   44       -6.423820   1.000000
   45       -6.392271   1.000000
   46       -6.346222   1.000000
   47       -6.184006   1.000000
   48       -6.111072   1.000000
   49       -6.022317   1.000000
   50       -5.877682   1.000000
   51       -5.816315   1.000000
   52       -5.791427   1.000000
   53       -5.728153   1.000000
   54       -5.596201   1.000000
   55       -5.466094   1.000000
   56       -5.379079   1.000000
   57       -5.308027   1.000000
   58       -5.236840   1.000000
   59       -5.122634   1.000000
   60       -5.067140   1.000000
   61       -4.936019   1.000000
   62       -4.815176   1.000000
   63       -4.772624   1.000000
   64       -4.680666   1.000000
   65       -4.671872   1.000000
   66       -4.628542   1.000000
   67       -4.606533   1.000000
   68       -4.544830   1.000000
   69       -4.491220   1.000000
   70       -4.371592   1.000000
   71       -4.324040   1.000000
   72       -4.269322   1.000000
   73       -4.252379   1.000000
   74       -4.117255   1.000000
   75       -4.080285   1.000000
   76       -3.988351   1.000000
   77       -3.915747   1.000000
   78       -3.872867   1.000000
   79       -3.837584   1.000000
   80       -3.773075   1.000000
   81       -3.683258   1.000000
   82       -3.602674   1.000000
   83       -3.559485   1.000000
   84       -3.464075   1.000000
   85       -3.370412   1.000000
   86       -3.332264   1.000000
   87       -3.273985   1.000000
   88       -3.225217   1.000000
   89       -3.198655   1.000000
   90       -3.148138   1.000000
   91       -3.067872   1.000000
   92       -2.967089   1.000000
   93       -2.891191   1.000000
   94       -2.794053   1.000000
   95       -2.759118   1.000000
   96       -2.720112   1.000000
   97       -2.617106   1.000000
   98       -2.580210   1.000000
   99       -2.473583   1.000000
  100       -2.465309   1.000000
  101       -2.442289   1.000000
  102       -2.392349   1.000000
  103       -2.278986   1.000000
  104       -2.242598   1.000000
  105       -2.227808   1.000000
  106       -2.183769   1.000000
  107       -2.091296   1.000000
  108       -2.016427   1.000000
  109       -1.983094   1.000000
  110       -1.935227   1.000000
  111       -1.892233   1.000000
  112       -1.773506   1.000000
  113       -1.700000   1.000000
  114       -1.561895   1.000000
  115       -1.466867   1.000000
  116       -1.388292   1.000000
  117       -1.271139   1.000000
  118       -1.096019   1.000000
  119       -1.047539   1.000000
  120       -1.003078   1.000000
  121       -0.929991   1.000000
  122       -0.819500   1.000000
  123       -0.680168   1.000003
  124       -0.625148   1.000017
  125       -0.501049   1.000524
  126       -0.362128   1.008646
  127       -0.332222   1.013453
  128       -0.293192   1.021647
  129       -0.236690   1.033480
  130       -0.185208   1.032170
  131       -0.124533   0.986785
  132        0.008399   0.603111
  133        0.068006   0.354249
  134        0.091366   0.264200
  135        0.181267   0.026475
  136        0.209863  -0.008612
  137        0.246803  -0.030896
  138        0.308876  -0.032494
  139        0.393887  -0.014256
  140        0.429569  -0.008443
  141        0.538340  -0.001026
  142        0.635383  -0.000087
  143        0.711491  -0.000009
  144        0.739551  -0.000003
  145        0.803936  -0.000000
  146        0.852257  -0.000000
  147        0.934986  -0.000000
  148        0.951058  -0.000000
  149        1.033476  -0.000000
  150        1.097509  -0.000000
  151        1.103289  -0.000000
  152        1.141886  -0.000000
  153        1.188950  -0.000000
  154        1.223754  -0.000000
  155        1.241674  -0.000000
  156        1.296130  -0.000000
  157        1.325315  -0.000000
  158        1.358593  -0.000000
  159        1.393771  -0.000000
  160        1.416384  -0.000000
  161        1.466043  -0.000000
  162        1.514766  -0.000000
  163        1.543060  -0.000000
  164        1.683749  -0.000000
  165        1.853631  -0.000000
  166        1.886619  -0.000000
  167        2.442269  -0.000000
  168        2.450100  -0.000000

  0.2000000E+00  0.1111111E+00  0.1262379E-14  0.4444444E-01
    1      -13.954591   1.000000
    2      -13.257497   1.000000
    3      -12.724564   1.000000
    4      -12.237904   1.000000
    5      -12.020455   1.000000
    6      -11.998981   1.000000
    7      -11.800236   1.000000
    8      -11.533050   1.000000
    9      -11.349270   1.000000
   10      -11.270678   1.000000
   11      -11.156789   1.000000
   12      -10.953663   1.000000
   13      -10.920290   1.000000
   14      -10.627628   1.000000
   15      -10.560818   1.000000
   16      -10.367808   1.000000
   17      -10.286551   1.000000
   18       -9.982665   1.000000
   19       -9.768091   1.000000
   20       -9.691934   1.000000
   21       -9.520159   1.000000
   22       -9.471952   1.000000
   23       -9.322443   1.000000
   24       -9.063524   1.000000
   25       -9.043388   1.000000
   26       -8.735380   1.000000
   27       -8.341474   1.000000
   28       -8.262744   1.000000
   29       -8.153067   1.000000
   30       -8.119273   1.000000
   31       -8.067134   1.000000
   32       -7.908494   1.000000
   33       -7.577202   1.000000
   34       -7.546715   1.000000
   35       -7.298914   1.000000
   36       -7.242211   1.000000
   37       -7.074388   1.000000
   38       -6.933251   1.000000
   39       -6.801116   1.000000
   40       -6.783596   1.000000
   41       -6.733228   1.000000
   42       -6.620596   1.000000
   43       -6.515909   1.000000
   44       -6.448226   1.000000
   45       -6.419098   1.000000
   46       -6.353461   1.000000
   47       -6.157204   1.000000
   48       -6.010718   1.000000
   49       -5.907454   1.000000
   50       -5.865886   1.000000
   51       -5.827291   1.000000
   52       -5.712042   1.000000
   53       -5.597706   1.000000
   54       -5.544525   1.000000
   55       -5.486556   1.000000
   56       -5.393378   1.000000
   57       -5.330793   1.000000
   58       -5.232829   1.000000
   59       -5.173232   1.000000
   60       -5.058510   1.000000
   61       -4.918772   1.000000
   62       -4.851074   1.000000
   63       -4.790701   1.000000
   64       -4.735940   1.000000
   65       -4.656382   1.000000
   66       -4.612219   1.000000
   67       -4.572616   1.000000
   68       -4.510772   1.000000
   69       -4.435305   1.000000
   70       -4.406204   1.000000
   71       -4.362922   1.000000
   72       -4.279488   1.000000
   73       -4.185918   1.000000
   74       -4.112458   1.000000
   75       -4.092872   1.000000
   76       -3.960823   1.000000
   77       -3.956008   1.000000
   78       -3.906783   1.000000
   79       -3.831126   1.000000
   80       -3.740856   1.000000
   81       -3.700825   1.000000
   82       -3.605040   1.000000
   83       -3.550169   1.000000
   84       -3.509091   1.000000
   85       -3.409326   1.000000
   86       -3.329750   1.000000
   87       -3.290386   1.000000
   88       -3.248424   1.000000
   89       -3.193179   1.000000
   90       -3.151686   1.000000
   91       -3.112703   1.000000
   92       -3.037413   1.000000
   93       -2.881688   1.000000
   94       -2.811997   1.000000
   95       -2.740903   1.000000
   96       -2.638956   1.000000
   97       -2.628989   1.000000
   98       -2.532867   1.000000
   99       -2.517946   1.000000
  100       -2.465945   1.000000
  101       -2.399502   1.000000
  102       -2.348321   1.000000
  103       -2.302689   1.000000
  104       -2.265343   1.000000
  105       -2.233155   1.000000
  106       -2.162933   1.000000
  107       -2.058351   1.000000
  108       -1.980683   1.000000
  109       -1.954675   1.000000
  110       -1.871773   1.000000
  111       -1.827698   1.000000
  112       -1.790274   1.000000
  113       -1.717346   1.000000
  114       -1.538271   1.000000
  115       -1.469590   1.000000
  116       -1.419372   1.000000
  117       -1.287725   1.000000
  118       -1.165087   1.000000
  119       -1.114426   1.000000
  120       -0.998577   1.000000
  121       -0.938806   1.000000
  122       -0.874884   1.000000
  123       -0.727479   1.000001
  124       -0.627709   1.000015
  125       -0.477322   1.000917
  126       -0.423535   1.002894
  127       -0.350376   1.010364
  128       -0.299791   1.020150
  129       -0.266920   1.027676
  130       -0.204309   1.035219
  131       -0.132404   0.996608
  132       -0.033671   0.765383
  133        0.049900   0.428651
  134        0.117381   0.175667
  135        0.158842   0.067248
  136        0.209564  -0.008334
  137        0.282511  -0.035379
  138        0.347237  -0.024393
  139        0.396924  -0.013683
  140        0.505246  -0.002103
  141        0.548707  -0.000809
  142        0.614346  -0.000156
  143        0.694892  -0.000015
  144        0.776205  -0.000001
  145        0.842946  -0.000000
  146        0.905762  -0.000000
  147        0.938494  -0.000000
  148        1.005023  -0.000000
  149        1.011902  -0.000000
  150        1.079922  -0.000000
  151        1.126542  -0.000000
  152        1.172083  -0.000000
  153        1.202796  -0.000000
  154        1.227752  -0.000000
  155        1.253340  -0.000000
  156        1.297083  -0.000000
  157        1.331971  -0.000000
  158        1.361038  -0.000000
  159        1.418526  -0.000000
  160        1.445799  -0.000000
  161        1.513250  -0.000000
  162        1.527203  -0.000000
  163        1.565160  -0.000000
  164        1.668759  -0.000000
  165        1.761386  -0.000000
  166        1.871035  -0.000000
  167        2.041035  -0.000000
  168        2.501865  -0.000000

  0.4000000E+00  0.1111111E+00  0.1262379E-14  0.4444444E-01
    1      -13.851243   1.000000
    2      -13.513260   1.000000
    3      -12.598309   1.000000
    4      -12.273283   1.000000
    5      -11.993307   1.000000
    6      -11.870331   1.000000
    7      -11.752354   1.000000
    8      -11.484748   1.000000
    9      -11.357854   1.000000
   10      -11.207797   1.000000
   11      -11.081375   1.000000
   12      -11.008093   1.000000
   13      -10.924651   1.000000
   14      -10.737502   1.000000
   15      -10.677266   1.000000
   16      -10.526623   1.000000
   17      -10.301899   1.000000
   18      -10.054578   1.000000
   19       -9.947082   1.000000
   20       -9.773794   1.000000
   21       -9.488347   1.000000
   22       -9.336085   1.000000
   23       -9.150854   1.000000
   24       -9.008855   1.000000
   25       -8.937640   1.000000
   26       -8.741236   1.000000
   27       -8.385557   1.000000
   28       -8.186097   1.000000
   29       -7.945778   1.000000
   30       -7.915051   1.000000
   31       -7.811430   1.000000
   32       -7.777125   1.000000
   33       -7.747608   1.000000
   34       -7.670536   1.000000
   35       -7.524188   1.000000
   36       -7.354566   1.000000
   37       -7.308506   1.000000
   38       -7.217001   1.000000
   39       -7.052194   1.000000
   40       -6.853595   1.000000
   41       -6.687092   1.000000
   42       -6.591120   1.000000
   43       -6.502453   1.000000
   44       -6.400250   1.000000
   45       -6.185912   1.000000
   46       -6.164672   1.000000
   47       -6.074721   1.000000
   48       -6.051990   1.000000
   49       -5.980769   1.000000
   50       -5.940705   1.000000
   51       -5.768276   1.000000