 running on   72 total cores
 distrk:  each k-point on   72 cores,    1 groups
 distr:  one band on    9 cores,    8 groups
 using from now: INCAR     
 vasp.5.4.4.18Apr17-6-g9f103f2a35 (build Dec  7 2020 12:43:57) complex           
 POSCAR found type information on POSCAR  Mo V  B 
 POSCAR found :  3 types and      69 ions
 scaLAPACK will be used

 ----------------------------------------------------------------------------- 
|                                                                             |
|  ADVICE TO THIS USER RUNNING 'VASP/VAMP'   (HEAR YOUR MASTER'S VOICE ...):  |
|                                                                             |
|      You enforced a specific xc-type in the INCAR file,                     |
|      a different type was found on the POTCAR file                          |
|          I HOPE YOU KNOW, WHAT YOU ARE  DOING                               |
|                                                                             |
 ----------------------------------------------------------------------------- 

 LDA part: xc-table for Pade appr. of Perdew
 POSCAR, INCAR and KPOINTS ok, starting setup
 resort distribution
 resort distribution
 resort distribution
 resort distribution
 resort distribution
 resort distribution
 resort distribution
 resort distribution
 resort distribution
 resort distribution
 resort distribution
 resort distribution
 resort distribution
 resort distribution
 resort distribution
 resort distribution
 resort distribution
 resort distribution
 resort distribution
 resort distribution
 resort distribution
 resort distribution
 resort distribution
 resort distribution
 resort distribution
 resort distribution
 resort distribution
 resort distribution
 resort distribution
 resort distribution
 resort distribution
 resort distribution
 resort distribution
 resort distribution
 resort distribution
 resort distribution
 resort distribution
 resort distribution
 resort distribution
 resort distribution
 resort distribution
 resort distribution
 resort distribution
 resort distribution
 resort distribution
 resort distribution
 resort distribution
 resort distribution
 resort distribution
 resort distribution
 resort distribution
 resort distribution
 resort distribution
 resort distribution
 resort distribution
 resort distribution
 resort distribution
 resort distribution
 resort distribution
 resort distribution
 resort distribution
 resort distribution
 resort distribution
 resort distribution
 resort distribution
 resort distribution
 resort distribution
 resort distribution
 resort distribution
 resort distribution
 resort distribution
 resort distribution
 FFT: planning ...
 WAVECAR not read
 augmentation electrons   264.05812635622073     
 soft         electrons   0.0000000000000000     
 augmentation electrons   264.05812635622073     
 soft         electrons   0.0000000000000000     
 augmentation electrons   264.05812635622073     
 soft         electrons   0.0000000000000000     
 augmentation electrons   264.05812635622073     
 soft         electrons   0.0000000000000000     
 augmentation electrons   264.05812635622073     
 soft         electrons   0.0000000000000000     
 augmentation electrons   264.05812635622073     
 soft         electrons   0.0000000000000000     
 augmentation electrons   264.05812635622073     
 soft         electrons   0.0000000000000000     
 augmentation electrons   264.05812635622073     
 soft         electrons   0.0000000000000000     
 augmentation electrons   264.05812635622073     
 soft         electrons   0.0000000000000000     
 augmentation electrons   264.05812635622073     
 soft         electrons   0.0000000000000000     
 augmentation electrons   264.05812635622073     
 soft         electrons   0.0000000000000000     
 augmentation electrons   264.05812635622073     
 soft         electrons   0.0000000000000000     
 augmentation electrons   264.05812635622073     
 soft         electrons   0.0000000000000000     
 augmentation electrons   264.05812635622073     
 soft         electrons   0.0000000000000000     
 augmentation electrons   264.05812635622073     
 soft         electrons   0.0000000000000000     
 augmentation electrons   264.05812635622073     
 soft         electrons   0.0000000000000000     
 augmentation electrons   264.05812635622073     
 soft         electrons   0.0000000000000000     
 augmentation electrons   264.05812635622073     
 soft         electrons   0.0000000000000000     
 augmentation electrons   264.05812635622073     
 soft         electrons   0.0000000000000000     
 augmentation electrons   264.05812635622073     
 soft         electrons   0.0000000000000000     
 augmentation electrons   264.05812635622073     
 soft         electrons   0.0000000000000000     
 augmentation electrons   264.05812635622073     
 soft         electrons   0.0000000000000000     
 augmentation electrons   264.05812635622073     
 soft         electrons   0.0000000000000000     
 augmentation electrons   264.05812635622073     
 soft         electrons   0.0000000000000000     
 augmentation electrons   264.05812635622073     
 soft         electrons   0.0000000000000000     
 augmentation electrons   264.05812635622073     
 soft         electrons   0.0000000000000000     
 augmentation electrons   264.05812635622073     
 soft         electrons   0.0000000000000000     
 augmentation electrons   264.05812635622073     
 soft         electrons   0.0000000000000000     
 augmentation electrons   264.05812635622073     
 soft         electrons   0.0000000000000000     
 augmentation electrons   264.05812635622073     
 soft         electrons   0.0000000000000000     
 augmentation electrons   264.05812635622073     
 soft         electrons   0.0000000000000000     
 augmentation electrons   264.05812635622073     
 soft         electrons   0.0000000000000000     
 augmentation electrons   264.05812635622073     
 soft         electrons   0.0000000000000000     
 augmentation electrons   264.05812635622073     
 soft         electrons   0.0000000000000000     
 augmentation electrons   264.05812635622073     
 soft         electrons   0.0000000000000000     
 augmentation electrons   264.05812635622073     
 soft         electrons   0.0000000000000000     
 augmentation electrons   264.05812635622073     
 soft         electrons   0.0000000000000000     
 augmentation electrons   264.05812635622073     
 soft         electrons   0.0000000000000000     
 augmentation electrons   264.05812635622073     
 soft         electrons   0.0000000000000000     
 augmentation electrons   264.05812635622073     
 soft         electrons   0.0000000000000000     
 augmentation electrons   264.05812635622073     
 soft         electrons   0.0000000000000000     
 augmentation electrons   264.05812635622073     
 soft         electrons   0.0000000000000000     
 augmentation electrons   264.05812635622073     
 soft         electrons   0.0000000000000000     
 augmentation electrons   264.05812635622073     
 soft         electrons   0.0000000000000000     
 augmentation electrons   264.05812635622073     
 soft         electrons   0.0000000000000000     
 augmentation electrons   264.05812635622073     
 soft         electrons   0.0000000000000000     
 augmentation electrons   264.05812635622073     
 soft         electrons   0.0000000000000000     
 augmentation electrons   264.05812635622073     
 soft         electrons   0.0000000000000000     
 augmentation electrons   264.05812635622073     
 soft         electrons   0.0000000000000000     
 augmentation electrons   264.05812635622073     
 soft         electrons   0.0000000000000000     
 augmentation electrons   264.05812635622073     
 soft         electrons   0.0000000000000000     
 augmentation electrons   264.05812635622073     
 soft         electrons   0.0000000000000000     
 augmentation electrons   264.05812635622073     
 soft         electrons   0.0000000000000000     
 augmentation electrons   264.05812635622073     
 soft         electrons   0.0000000000000000     
 augmentation electrons   264.05812635622073     
 soft         electrons   0.0000000000000000     
 augmentation electrons   264.05812635622073     
 soft         electrons   0.0000000000000000     
 augmentation electrons   264.05812635622073     
 soft         electrons   0.0000000000000000     
 augmentation electrons   264.05812635622073     
 soft         electrons   0.0000000000000000     
 augmentation electrons   264.05812635622073     
 soft         electrons   0.0000000000000000     
 augmentation electrons   264.05812635622073     
 soft         electrons   0.0000000000000000     
 augmentation electrons   264.05812635622073     
 soft         electrons   0.0000000000000000     
 augmentation electrons   264.05812635622073     
 soft         electrons   0.0000000000000000     
 augmentation electrons   264.05812635622073     
 soft         electrons   0.0000000000000000     
 augmentation electrons   264.05812635622073     
 soft         electrons   0.0000000000000000     
 augmentation electrons   264.05812635622073     
 soft         electrons   0.0000000000000000     
 augmentation electrons   264.05812635622073     
 soft         electrons   0.0000000000000000     
 augmentation electrons   264.05812635622073     
 soft         electrons   0.0000000000000000     
 augmentation electrons   264.05812635622073     
 soft         electrons   0.0000000000000000     
 augmentation electrons   264.05812635622073     
 soft         electrons   0.0000000000000000     
 augmentation electrons   264.05812635622073     
 soft         electrons   0.0000000000000000     
 augmentation electrons   264.05812635622073     
 soft         electrons   0.0000000000000000     
 augmentation electrons   264.05812635622073     
 soft         electrons   0.0000000000000000     
 total        electrons   264.05812635622073     
 total        electrons   264.05812635622073     
 total        electrons   264.05812635622073     
 total        electrons   264.05812635622073     
 total        electrons   264.05812635622073     
 total        electrons   264.05812635622073     
 total        electrons   264.05812635622073     
 total        electrons   264.05812635622073     
 total        electrons   264.05812635622073     
 total        electrons   264.05812635622073     
 total        electrons   264.05812635622073     
 total        electrons   264.05812635622073     
 total        electrons   264.05812635622073     
 total        electrons   264.05812635622073     
 total        electrons   264.05812635622073     
 total        electrons   264.05812635622073     
 total        electrons   264.05812635622073     
 total        electrons   264.05812635622073     
 total        electrons   264.05812635622073     
 total        electrons   264.05812635622073     
 total        electrons   264.05812635622073     
 total        electrons   264.05812635622073     
 total        electrons   264.05812635622073     
 total        electrons   264.05812635622073     
 total        electrons   264.05812635622073     
 total        electrons   264.05812635622073     
 total        electrons   264.05812635622073     
 total        electrons   264.05812635622073     
 total        electrons   264.05812635622073     
 total        electrons   264.05812635622073     
 total        electrons   264.05812635622073     
 total        electrons   264.05812635622073     
 total        electrons   264.05812635622073     
 total        electrons   264.05812635622073     
 total        electrons   264.05812635622073     
 total        electrons   264.05812635622073     
 total        electrons   264.05812635622073     
 total        electrons   264.05812635622073     
 total        electrons   264.05812635622073     
 total        electrons   264.05812635622073     
 total        electrons   264.05812635622073     
 total        electrons   264.05812635622073     
 total        electrons   264.05812635622073     
 total        electrons   264.05812635622073     
 total        electrons   264.05812635622073     
 total        electrons   264.05812635622073     
 total        electrons   264.05812635622073     
 total        electrons   264.05812635622073     
 total        electrons   264.05812635622073     
 total        electrons   264.05812635622073     
 total        electrons   264.05812635622073     
 total        electrons   264.05812635622073     
 total        electrons   264.05812635622073     
 total        electrons   264.05812635622073     
 total        electrons   264.05812635622073     
 total        electrons   264.05812635622073     
 total        electrons   264.05812635622073     
 total        electrons   264.05812635622073     
 total        electrons   264.05812635622073     
 total        electrons   264.05812635622073     
 total        electrons   264.05812635622073     
 total        electrons   264.05812635622073     
 total        electrons   264.05812635622073     
 total        electrons   264.05812635622073     
 total        electrons   264.05812635622073     
 total        electrons   264.05812635622073     
 total        electrons   264.05812635622073     
 total        electrons   264.05812635622073     
 total        electrons   264.05812635622073     
 total        electrons   264.05812635622073     
 total        electrons   264.05812635622073     
 total        electrons   264.05812635622073     
 augmentation electrons   1134.5114721628049     
 soft         electrons   0.0000000000000000     
 augmentation electrons   1134.5114721628049     
 soft         electrons   0.0000000000000000     
 augmentation electrons   1134.5114721628049     
 soft         electrons   0.0000000000000000     
 augmentation electrons   1134.5114721628049     
 soft         electrons   0.0000000000000000     
 augmentation electrons   1134.5114721628049     
 soft         electrons   0.0000000000000000     
 augmentation electrons   1134.5114721628049     
 soft         electrons   0.0000000000000000     
 augmentation electrons   1134.5114721628049     
 soft         electrons   0.0000000000000000     
 augmentation electrons   1134.5114721628049     
 soft         electrons   0.0000000000000000     
 augmentation electrons   1134.5114721628049     
 soft         electrons   0.0000000000000000     
 augmentation electrons   1134.5114721628049     
 soft         electrons   0.0000000000000000     
 augmentation electrons   1134.5114721628049     
 soft         electrons   0.0000000000000000     
 augmentation electrons   1134.5114721628049     
 soft         electrons   0.0000000000000000     
 augmentation electrons   1134.5114721628049     
 soft         electrons   0.0000000000000000     
 augmentation electrons   1134.5114721628049     
 soft         electrons   0.0000000000000000     
 augmentation electrons   1134.5114721628049     
 soft         electrons   0.0000000000000000     
 augmentation electrons   1134.5114721628049     
 soft         electrons   0.0000000000000000     
 augmentation electrons   1134.5114721628049     
 soft         electrons   0.0000000000000000     
 augmentation electrons   1134.5114721628049     
 soft         electrons   0.0000000000000000     
 augmentation electrons   1134.5114721628049     
 soft         electrons   0.0000000000000000     
 augmentation electrons   1134.5114721628049     
 soft         electrons   0.0000000000000000     
 augmentation electrons   1134.5114721628049     
 soft         electrons   0.0000000000000000     
 augmentation electrons   1134.5114721628049     
 soft         electrons   0.0000000000000000     
 augmentation electrons   1134.5114721628049     
 soft         electrons   0.0000000000000000     
 augmentation electrons   1134.5114721628049     
 soft         electrons   0.0000000000000000     
 augmentation electrons   1134.5114721628049     
 soft         electrons   0.0000000000000000     
 augmentation electrons   1134.5114721628049     
 soft         electrons   0.0000000000000000     
 augmentation electrons   1134.5114721628049     
 soft         electrons   0.0000000000000000     
 augmentation electrons   1134.5114721628049     
 soft         electrons   0.0000000000000000     
 augmentation electrons   1134.5114721628049     
 soft         electrons   0.0000000000000000     
 augmentation electrons   1134.5114721628049     
 soft         electrons   0.0000000000000000     
 augmentation electrons   1134.5114721628049     
 soft         electrons   0.0000000000000000     
 augmentation electrons   1134.5114721628049     
 soft         electrons   0.0000000000000000     
 augmentation electrons   1134.5114721628049     
 soft         electrons   0.0000000000000000     
 augmentation electrons   1134.5114721628049     
 soft         electrons   0.0000000000000000     
 augmentation electrons   1134.5114721628049     
 soft         electrons   0.0000000000000000     
 augmentation electrons   1134.5114721628049     
 soft         electrons   0.0000000000000000     
 augmentation electrons   1134.5114721628049     
 soft         electrons   0.0000000000000000     
 augmentation electrons   1134.5114721628049     
 soft         electrons   0.0000000000000000     
 augmentation electrons   1134.5114721628049     
 soft         electrons   0.0000000000000000     
 augmentation electrons   1134.5114721628049     
 soft         electrons   0.0000000000000000     
 augmentation electrons   1134.5114721628049     
 soft         electrons   0.0000000000000000     
 augmentation electrons   1134.5114721628049     
 soft         electrons   0.0000000000000000     
 augmentation electrons   1134.5114721628049     
 soft         electrons   0.0000000000000000     
 augmentation electrons   1134.5114721628049     
 soft         electrons   0.0000000000000000     
 augmentation electrons   1134.5114721628049     
 soft         electrons   0.0000000000000000     
 augmentation electrons   1134.5114721628049     
 soft         electrons   0.0000000000000000     
 augmentation electrons   1134.5114721628049     
 soft         electrons   0.0000000000000000     
 augmentation electrons   1134.5114721628049     
 soft         electrons   0.0000000000000000     
 augmentation electrons   1134.5114721628049     
 soft         electrons   0.0000000000000000     
 augmentation electrons   1134.5114721628049     
 soft         electrons   0.0000000000000000     
 augmentation electrons   1134.5114721628049     
 soft         electrons   0.0000000000000000     
 augmentation electrons   1134.5114721628049     
 soft         electrons   0.0000000000000000     
 augmentation electrons   1134.5114721628049     
 soft         electrons   0.0000000000000000     
 augmentation electrons   1134.5114721628049     
 soft         electrons   0.0000000000000000     
 augmentation electrons   1134.5114721628049     
 soft         electrons   0.0000000000000000     
 augmentation electrons   1134.5114721628049     
 soft         electrons   0.0000000000000000     
 augmentation electrons   1134.5114721628049     
 soft         electrons   0.0000000000000000     
 augmentation electrons   1134.5114721628049     
 soft         electrons   0.0000000000000000     
 augmentation electrons   1134.5114721628049     
 soft         electrons   0.0000000000000000     
 augmentation electrons   1134.5114721628049     
 soft         electrons   0.0000000000000000     
 augmentation electrons   1134.5114721628049     
 soft         electrons   0.0000000000000000     
 augmentation electrons   1134.5114721628049     
 soft         electrons   0.0000000000000000     
 augmentation electrons   1134.5114721628049     
 soft         electrons   0.0000000000000000     
 augmentation electrons   1134.5114721628049     
 soft         electrons   0.0000000000000000     
 augmentation electrons   1134.5114721628049     
 soft         electrons   0.0000000000000000     
 augmentation electrons   1134.5114721628049     
 soft         electrons   0.0000000000000000     
 augmentation electrons   1134.5114721628049     
 soft         electrons   0.0000000000000000     
 augmentation electrons   1134.5114721628049     
 soft         electrons   0.0000000000000000     
 augmentation electrons   1134.5114721628049     
 soft         electrons   0.0000000000000000     
 augmentation electrons   1134.5114721628049     
 soft         electrons   0.0000000000000000     
 augmentation electrons   1134.5114721628049     
 soft         electrons   0.0000000000000000     
 augmentation electrons   1134.5114721628049     
 soft         electrons   0.0000000000000000     
 total        electrons   1134.5114721628049     
 total        electrons   1134.5114721628049     
 total        electrons   1134.5114721628049     
 total        electrons   1134.5114721628049     
 total        electrons   1134.5114721628049     
 total        electrons   1134.5114721628049     
 total        electrons   1134.5114721628049     
 total        electrons   1134.5114721628049     
 total        electrons   1134.5114721628049     
 total        electrons   1134.5114721628049     
 total        electrons   1134.5114721628049     
 total        electrons   1134.5114721628049     
 total        electrons   1134.5114721628049     
 total        electrons   1134.5114721628049     
 total        electrons   1134.5114721628049     
 total        electrons   1134.5114721628049     
 total        electrons   1134.5114721628049     
 total        electrons   1134.5114721628049     
 total        electrons   1134.5114721628049     
 total        electrons   1134.5114721628049     
 total        electrons   1134.5114721628049     
 total        electrons   1134.5114721628049     
 total        electrons   1134.5114721628049     
 total        electrons   1134.5114721628049     
 total        electrons   1134.5114721628049     
 total        electrons   1134.5114721628049     
 total        electrons   1134.5114721628049     
 total        electrons   1134.5114721628049     
 total        electrons   1134.5114721628049     
 total        electrons   1134.5114721628049     
 total        electrons   1134.5114721628049     
 total        electrons   1134.5114721628049     
 total        electrons   1134.5114721628049     
 total        electrons   1134.5114721628049     
 total        electrons   1134.5114721628049     
 total        electrons   1134.5114721628049     
 total        electrons   1134.5114721628049     
 total        electrons   1134.5114721628049     
 total        electrons   1134.5114721628049     
 total        electrons   1134.5114721628049     
 total        electrons   1134.5114721628049     
 total        electrons   1134.5114721628049     
 total        electrons   1134.5114721628049     
 total        electrons   1134.5114721628049     
 total        electrons   1134.5114721628049     
 total        electrons   1134.5114721628049     
 total        electrons   1134.5114721628049     
 total        electrons   1134.5114721628049     
 total        electrons   1134.5114721628049     
 total        electrons   1134.5114721628049     
 total        electrons   1134.5114721628049     
 total        electrons   1134.5114721628049     
 total        electrons   1134.5114721628049     
 total        electrons   1134.5114721628049     
 total        electrons   1134.5114721628049     
 total        electrons   1134.5114721628049     
 total        electrons   1134.5114721628049     
 total        electrons   1134.5114721628049     
 total        electrons   1134.5114721628049     
 total        electrons   1134.5114721628049     
 total        electrons   1134.5114721628049     
 total        electrons   1134.5114721628049     
 total        electrons   1134.5114721628049     
 total        electrons   1134.5114721628049     
 total        electrons   1134.5114721628049     
 total        electrons   1134.5114721628049     
 total        electrons   1134.5114721628049     
 total        electrons   1134.5114721628049     
 total        electrons   1134.5114721628049     
 total        electrons   1134.5114721628049     
 total        electrons   1134.5114721628049     
 total        electrons   1134.5114721628049     
 entering main loop
       N       E                     dE             d eps       ncg     rms          rms(c)
DAV:   1     0.233580493063E+04    0.23358E+04   -0.94711E+04  7728   0.128E+03
DAV:   2    -0.160078415535E+03   -0.24959E+04   -0.23307E+04  9016   0.310E+02
DAV:   3    -0.583066476220E+03   -0.42299E+03   -0.40450E+03 10864   0.148E+02
DAV:   4    -0.619671618840E+03   -0.36605E+02   -0.35157E+02 12416   0.487E+01
DAV:   5    -0.621986215872E+03   -0.23146E+01   -0.22364E+01 13112   0.120E+01    0.135E+02
RMM:   6    -0.563000041785E+03    0.58986E+02   -0.11273E+03 12528   0.937E+01    0.623E+01
RMM:   7    -0.603946524100E+03   -0.40946E+02   -0.38645E+02  8663   0.815E+01    0.468E+01
RMM:   8    -0.553375456512E+03    0.50571E+02   -0.13829E+02 10278   0.292E+01    0.353E+01
RMM:   9    -0.532687927183E+03    0.20688E+02   -0.85885E+01 11523   0.196E+01    0.234E+01
RMM:  10    -0.519705228731E+03    0.12983E+02   -0.17532E+01  8820   0.142E+01    0.174E+01
RMM:  11    -0.519652368797E+03    0.52860E-01   -0.82187E+00  9690   0.916E+00    0.147E+01
RMM:  12    -0.519815757642E+03   -0.16339E+00   -0.52090E+00 12322   0.216E+00    0.137E+01
RMM:  13    -0.520021717292E+03   -0.20596E+00   -0.68219E-01 12548   0.848E-01    0.144E+01
RMM:  14    -0.520098518963E+03   -0.76802E-01   -0.63988E-01 11294   0.178E+00    0.143E+01
RMM:  15    -0.519444125513E+03    0.65439E+00   -0.26888E+00  8745   0.603E+00    0.102E+01
RMM:  16    -0.518656945263E+03    0.78718E+00   -0.15293E+00  8555   0.452E+00    0.610E+00
RMM:  17    -0.518484648092E+03    0.17230E+00   -0.10210E+00 11441   0.213E+00    0.344E+00
RMM:  18    -0.518466639628E+03    0.18008E-01   -0.16235E-01 11459   0.812E-01    0.307E+00
RMM:  19    -0.518444960500E+03    0.21679E-01   -0.10578E-01 10350   0.965E-01    0.256E+00
RMM:  20    -0.518381110864E+03    0.63850E-01   -0.11719E-01  9747   0.108E+00    0.126E+00
RMM:  21    -0.518369695972E+03    0.11415E-01   -0.16262E-01 11807   0.763E-01    0.105E+00
RMM:  22    -0.518364649978E+03    0.50460E-02   -0.25865E-02 12413   0.221E-01    0.817E-01
RMM:  23    -0.518361006992E+03    0.36430E-02   -0.76137E-03 10596   0.215E-01    0.654E-01
RMM:  24    -0.518357635706E+03    0.33713E-02   -0.57238E-03 10106   0.204E-01    0.413E-01
RMM:  25    -0.518356216863E+03    0.14188E-02   -0.11898E-02 11695   0.224E-01    0.201E-01
RMM:  26    -0.518355668370E+03    0.54849E-03   -0.16695E-03  9313   0.131E-01    0.915E-02
RMM:  27    -0.518355722142E+03   -0.53772E-04   -0.18541E-03 11802   0.751E-02    0.104E-01
RMM:  28    -0.518355910918E+03   -0.18878E-03   -0.52234E-04 11620   0.406E-02    0.751E-02
RMM:  29    -0.518356348383E+03   -0.43746E-03   -0.27966E-04 10095   0.317E-02    0.494E-02
RMM:  30    -0.518356688675E+03   -0.34029E-03   -0.18564E-04 10348   0.285E-02    0.350E-02
RMM:  31    -0.518356968452E+03   -0.27978E-03   -0.27556E-04 11390   0.248E-02    0.172E-02
RMM:  32    -0.518357050481E+03   -0.82029E-04   -0.80346E-05  9670   0.113E-02    0.162E-02
RMM:  33    -0.518357113595E+03   -0.63114E-04   -0.19713E-05  7727   0.649E-03    0.115E-02
RMM:  34    -0.518357176351E+03   -0.62756E-04   -0.10248E-05  7294   0.526E-03    0.782E-03
RMM:  35    -0.518357258987E+03   -0.82636E-04   -0.66431E-06  6929   0.535E-03    0.518E-03
RMM:  36    -0.518357361597E+03   -0.10261E-03   -0.77856E-06  7273   0.449E-03    0.309E-03
RMM:  37    -0.518357420166E+03   -0.58569E-04   -0.45175E-06  6883   0.348E-03    0.356E-03
RMM:  38    -0.518357468236E+03   -0.48070E-04   -0.42413E-06  6798   0.410E-03    0.406E-03
RMM:  39    -0.518357487028E+03   -0.18792E-04   -0.23178E-06  6423   0.346E-03    0.317E-03
RMM:  40    -0.518357491103E+03   -0.40749E-05   -0.58810E-07  5547   0.259E-03    0.256E-03
RMM:  41    -0.518357495913E+03   -0.48100E-05   -0.53755E-07  5288   0.189E-03    0.133E-03
RMM:  42    -0.518357497608E+03   -0.16955E-05   -0.32208E-07  4106   0.132E-03    0.105E-03
RMM:  43    -0.518357498762E+03   -0.11535E-05   -0.23691E-07  4029   0.124E-03    0.386E-04
RMM:  44    -0.518357499254E+03   -0.49189E-06   -0.14963E-07  3278   0.939E-04
   1 F= -.51835750E+03 E0= -.51835810E+03  d E =0.180781E-02
 augmentation electrons   27.616300612109981     
 soft         electrons   236.50391380043479     
 augmentation electrons   27.616300612109981     
 soft         electrons   236.50391380043479     
 augmentation electrons   27.616300612109981     
 soft         electrons   236.50391380043479     
 augmentation electrons   27.616300612109981     
 soft         electrons   236.50391380043479     
 augmentation electrons   27.616300612109981     
 soft         electrons   236.50391380043479     
 augmentation electrons   27.616300612109981     
 soft         electrons   236.50391380043479     
 augmentation electrons   27.616300612109981     
 soft         electrons   236.50391380043479     
 augmentation electrons   27.616300612109981     
 soft         electrons   236.50391380043479     
 augmentation electrons   27.616300612109981     
 soft         electrons   236.50391380043479     
 augmentation electrons   27.616300612109981     
 soft         electrons   236.50391380043479     
 augmentation electrons   27.616300612109981     
 soft         electrons   236.50391380043479     
 augmentation electrons   27.616300612109981     
 soft         electrons   236.50391380043479     
 augmentation electrons   27.616300612109981     
 soft         electrons   236.50391380043479     
 augmentation electrons   27.616300612109981     
 soft         electrons   236.50391380043479     
 augmentation electrons   27.616300612109981     
 soft         electrons   236.50391380043479     
 augmentation electrons   27.616300612109981     
 soft         electrons   236.50391380043479     
 augmentation electrons   27.616300612109981     
 soft         electrons   236.50391380043479     
 augmentation electrons   27.616300612109981     
 soft         electrons   236.50391380043479     
 augmentation electrons   27.616300612109981     
 soft         electrons   236.50391380043479     
 augmentation electrons   27.616300612109981     
 soft         electrons   236.50391380043479     
 augmentation electrons   27.616300612109981     
 soft         electrons   236.50391380043479     
 augmentation electrons   27.616300612109981     
 soft         electrons   236.50391380043479     
 augmentation electrons   27.616300612109981     
 soft         electrons   236.50391380043479     
 augmentation electrons   27.616300612109981     
 soft         electrons   236.50391380043479     
 augmentation electrons   27.616300612109981     
 soft         electrons   236.50391380043479     
 augmentation electrons   27.616300612109981     
 soft         electrons   236.50391380043479     
 augmentation electrons   27.616300612109981     
 soft         electrons   236.50391380043479     
 augmentation electrons   27.616300612109981     
 soft         electrons   236.50391380043479     
 augmentation electrons   27.616300612109981     
 soft         electrons   236.50391380043479     
 augmentation electrons   27.616300612109981     
 soft         electrons   236.50391380043479     
 augmentation electrons   27.616300612109981     
 soft         electrons   236.50391380043479     
 augmentation electrons   27.616300612109981     
 soft         electrons   236.50391380043479     
 augmentation electrons   27.616300612109981     
 soft         electrons   236.50391380043479     
 augmentation electrons   27.616300612109981     
 soft         electrons   236.50391380043479     
 augmentation electrons   27.616300612109981     
 soft         electrons   236.50391380043479     
 augmentation electrons   27.616300612109981     
 soft         electrons   236.50391380043479     
 augmentation electrons   27.616300612109981     
 soft         electrons   236.50391380043479     
 augmentation electrons   27.616300612109981     
 soft         electrons   236.50391380043479     
 augmentation electrons   27.616300612109981     
 soft         electrons   236.50391380043479     
 augmentation electrons   27.616300612109981     
 soft         electrons   236.50391380043479     
 augmentation electrons   27.616300612109981     
 soft         electrons   236.50391380043479     
 augmentation electrons   27.616300612109981     
 soft         electrons   236.50391380043479     
 augmentation electrons   27.616300612109981     
 soft         electrons   236.50391380043479     
 augmentation electrons   27.616300612109981     
 soft         electrons   236.50391380043479     
 augmentation electrons   27.616300612109981     
 soft         electrons   236.50391380043479     
 augmentation electrons   27.616300612109981     
 soft         electrons   236.50391380043479     
 augmentation electrons   27.616300612109981     
 soft         electrons   236.50391380043479     
 augmentation electrons   27.616300612109981     
 soft         electrons   236.50391380043479     
 augmentation electrons   27.616300612109981     
 soft         electrons   236.50391380043479     
 augmentation electrons   27.616300612109981     
 soft         electrons   236.50391380043479     
 augmentation electrons   27.616300612109981     
 soft         electrons   236.50391380043479     
 augmentation electrons   27.616300612109981     
 soft         electrons   236.50391380043479     
 augmentation electrons   27.616300612109981     
 soft         electrons   236.50391380043479     
 augmentation electrons   27.616300612109981     
 soft         electrons   236.50391380043479     
 augmentation electrons   27.616300612109981     
 soft         electrons   236.50391380043479     
 augmentation electrons   27.616300612109981     
 soft         electrons   236.50391380043479     
 augmentation electrons   27.616300612109981     
 soft         electrons   236.50391380043479     
 augmentation electrons   27.616300612109981     
 soft         electrons   236.50391380043479     
 augmentation electrons   27.616300612109981     
 soft         electrons   236.50391380043479     
 augmentation electrons   27.616300612109981     
 soft         electrons   236.50391380043479     
 augmentation electrons   27.616300612109981     
 soft         electrons   236.50391380043479     
 augmentation electrons   27.616300612109981     
 soft         electrons   236.50391380043479     
 augmentation electrons   27.616300612109981     
 soft         electrons   236.50391380043479     
 augmentation electrons   27.616300612109981     
 soft         electrons   236.50391380043479     
 augmentation electrons   27.616300612109981     
 soft         electrons   236.50391380043479     
 augmentation electrons   27.616300612109981     
 soft         electrons   236.50391380043479     
 augmentation electrons   27.616300612109981     
 soft         electrons   236.50391380043479     
 augmentation electrons   27.616300612109981     
 soft         electrons   236.50391380043479     
 augmentation electrons   27.616300612109981     
 soft         electrons   236.50391380043479     
 augmentation electrons   27.616300612109981     
 soft         electrons   236.50391380043479     
 augmentation electrons   27.616300612109981     
 soft         electrons   236.50391380043479     
 augmentation electrons   27.616300612109981     
 soft         electrons   236.50391380043479     
 total        electrons   264.12021441254478     
 total        electrons   264.12021441254478     
 total        electrons   264.12021441254478     
 total        electrons   264.12021441254478     
 total        electrons   264.12021441254478     
 total        electrons   264.12021441254478     
 total        electrons   264.12021441254478     
 total        electrons   264.12021441254478     
 total        electrons   264.12021441254478     
 total        electrons   264.12021441254478     
 total        electrons   264.12021441254478     
 total        electrons   264.12021441254478     
 total        electrons   264.12021441254478     
 total        electrons   264.12021441254478     
 total        electrons   264.12021441254478     
 total        electrons   264.12021441254478     
 total        electrons   264.12021441254478     
 total        electrons   264.12021441254478     
 total        electrons   264.12021441254478     
 total        electrons   264.12021441254478     
 total        electrons   264.12021441254478     
 total        electrons   264.12021441254478     
 total        electrons   264.12021441254478     
 total        electrons   264.12021441254478     
 total        electrons   264.12021441254478     
 total        electrons   264.12021441254478     
 total        electrons   264.12021441254478     
 total        electrons   264.12021441254478     
 total        electrons   264.12021441254478     
 total        electrons   264.12021441254478     
 total        electrons   264.12021441254478     
 total        electrons   264.12021441254478     
 total        electrons   264.12021441254478     
 total        electrons   264.12021441254478     
 total        electrons   264.12021441254478     
 total        electrons   264.12021441254478     
 total        electrons   264.12021441254478     
 total        electrons   264.12021441254478     
 total        electrons   264.12021441254478     
 total        electrons   264.12021441254478     
 total        electrons   264.12021441254478     
 total        electrons   264.12021441254478     
 total        electrons   264.12021441254478     
 total        electrons   264.12021441254478     
 total        electrons   264.12021441254478     
 total        electrons   264.12021441254478     
 total        electrons   264.12021441254478     
 total        electrons   264.12021441254478     
 total        electrons   264.12021441254478     
 total        electrons   264.12021441254478     
 total        electrons   264.12021441254478     
 total        electrons   264.12021441254478     
 total        electrons   264.12021441254478     
 total        electrons   264.12021441254478     
 total        electrons   264.12021441254478     
 total        electrons   264.12021441254478     
 total        electrons   264.12021441254478     
 total        electrons   264.12021441254478     
 total        electrons   264.12021441254478     
 total        electrons   264.12021441254478     
 total        electrons   264.12021441254478     
 total        electrons   264.12021441254478     
 total        electrons   264.12021441254478     
 total        electrons   264.12021441254478     
 total        electrons   264.12021441254478     
 total        electrons   264.12021441254478     
 total        electrons   264.12021441254478     
 total        electrons   264.12021441254478     
 total        electrons   264.12021441254478     
 total        electrons   264.12021441254478     
 total        electrons   264.12021441254478     
 total        electrons   264.12021441254478     
Note: The following floating-point exceptions are signalling: IEEE_OVERFLOW_FLAG
Note: The following floating-point exceptions are signalling: IEEE_OVERFLOW_FLAG
Note: The following floating-point exceptions are signalling: IEEE_OVERFLOW_FLAG
Note: The following floating-point exceptions are signalling: IEEE_OVERFLOW_FLAG
Note: The following floating-point exceptions are signalling: IEEE_OVERFLOW_FLAG
Note: The following floating-point exceptions are signalling: IEEE_OVERFLOW_FLAG
Note: The following floating-point exceptions are signalling: IEEE_OVERFLOW_FLAG
Note: The following floating-point exceptions are signalling: IEEE_OVERFLOW_FLAG
Note: The following floating-point exceptions are signalling: IEEE_OVERFLOW_FLAG
Note: The following floating-point exceptions are signalling: IEEE_OVERFLOW_FLAG
Note: The following floating-point exceptions are signalling: IEEE_OVERFLOW_FLAG
Note: The following floating-point exceptions are signalling: IEEE_OVERFLOW_FLAG
Note: The following floating-point exceptions are signalling: IEEE_OVERFLOW_FLAG
Note: The following floating-point exceptions are signalling: IEEE_OVERFLOW_FLAG
Note: The following floating-point exceptions are signalling: IEEE_OVERFLOW_FLAG
Note: The following floating-point exceptions are signalling: IEEE_OVERFLOW_FLAG
Note: The following floating-point exceptions are signalling: IEEE_OVERFLOW_FLAG
Note: The following floating-point exceptions are signalling: IEEE_OVERFLOW_FLAG
Note: The following floating-point exceptions are signalling: IEEE_OVERFLOW_FLAG
Note: The following floating-point exceptions are signalling: IEEE_OVERFLOW_FLAG
Note: The following floating-point exceptions are signalling: IEEE_OVERFLOW_FLAG
Note: The following floating-point exceptions are signalling: IEEE_OVERFLOW_FLAG
Note: The following floating-point exceptions are signalling: IEEE_OVERFLOW_FLAG
Note: The following floating-point exceptions are signalling: IEEE_OVERFLOW_FLAG
Note: The following floating-point exceptions are signalling: IEEE_OVERFLOW_FLAG
Note: The following floating-point exceptions are signalling: IEEE_OVERFLOW_FLAG
Note: The following floating-point exceptions are signalling: IEEE_OVERFLOW_FLAG
Note: The following floating-point exceptions are signalling: IEEE_OVERFLOW_FLAG
Note: The following floating-point exceptions are signalling: IEEE_OVERFLOW_FLAG
Note: The following floating-point exceptions are signalling: IEEE_OVERFLOW_FLAG
Note: The following floating-point exceptions are signalling: IEEE_OVERFLOW_FLAG
Note: The following floating-point exceptions are signalling: IEEE_OVERFLOW_FLAG
Note: The following floating-point exceptions are signalling: IEEE_OVERFLOW_FLAG
Note: The following floating-point exceptions are signalling: IEEE_OVERFLOW_FLAG
Note: The following floating-point exceptions are signalling: IEEE_OVERFLOW_FLAG
Note: The following floating-point exceptions are signalling: IEEE_OVERFLOW_FLAG
Note: The following floating-point exceptions are signalling: IEEE_OVERFLOW_FLAG
Note: The following floating-point exceptions are signalling: IEEE_OVERFLOW_FLAG
Note: The following floating-point exceptions are signalling: IEEE_OVERFLOW_FLAG
Note: The following floating-point exceptions are signalling: IEEE_OVERFLOW_FLAG
Note: The following floating-point exceptions are signalling: IEEE_OVERFLOW_FLAG
Note: The following floating-point exceptions are signalling: IEEE_OVERFLOW_FLAG
Note: The following floating-point exceptions are signalling: IEEE_OVERFLOW_FLAG
Note: The following floating-point exceptions are signalling: IEEE_INVALID_FLAG IEEE_OVERFLOW_FLAG
Note: The following floating-point exceptions are signalling: IEEE_OVERFLOW_FLAG
Note: The following floating-point exceptions are signalling: IEEE_OVERFLOW_FLAG
Note: The following floating-point exceptions are signalling: IEEE_OVERFLOW_FLAG
Note: The following floating-point exceptions are signalling: IEEE_OVERFLOW_FLAG
Note: The following floating-point exceptions are signalling: IEEE_OVERFLOW_FLAG
Note: The following floating-point exceptions are signalling: IEEE_INVALID_FLAG IEEE_OVERFLOW_FLAG
Note: The following floating-point exceptions are signalling: IEEE_OVERFLOW_FLAG
Note: The following floating-point exceptions are signalling: IEEE_OVERFLOW_FLAG
Note: The following floating-point exceptions are signalling: IEEE_OVERFLOW_FLAG
Note: The following floating-point exceptions are signalling: IEEE_OVERFLOW_FLAG
Note: The following floating-point exceptions are signalling: IEEE_OVERFLOW_FLAG
Note: The following floating-point exceptions are signalling: IEEE_OVERFLOW_FLAG
Note: The following floating-point exceptions are signalling: IEEE_OVERFLOW_FLAG
Note: The following floating-point exceptions are signalling: IEEE_OVERFLOW_FLAG
Note: The following floating-point exceptions are signalling: IEEE_OVERFLOW_FLAG
Note: The following floating-point exceptions are signalling: IEEE_OVERFLOW_FLAG
Note: The following floating-point exceptions are signalling: IEEE_OVERFLOW_FLAG
Note: The following floating-point exceptions are signalling: IEEE_OVERFLOW_FLAG
Note: The following floating-point exceptions are signalling: IEEE_OVERFLOW_FLAG
Note: The following floating-point exceptions are signalling: IEEE_OVERFLOW_FLAG
Note: The following floating-point exceptions are signalling: IEEE_OVERFLOW_FLAG
Note: The following floating-point exceptions are signalling: IEEE_OVERFLOW_FLAG
Note: The following floating-point exceptions are signalling: IEEE_OVERFLOW_FLAG
Note: The following floating-point exceptions are signalling: IEEE_OVERFLOW_FLAG
Note: The following floating-point exceptions are signalling: IEEE_OVERFLOW_FLAG
Note: The following floating-point exceptions are signalling: IEEE_OVERFLOW_FLAG
Note: The following floating-point exceptions are signalling: IEEE_OVERFLOW_FLAG
Note: The following floating-point exceptions are signalling: IEEE_OVERFLOW_FLAG
