   48   48   85    1
  0.2461586E+02  0.8645320E-09  0.6085000E-09  0.2593596E-08  0.5000000E-15
   1.0000000000000000E-004
  CAR 
 Name                                    
    188    149    120

  0.3742002E-15  0.3742002E-15  0.3742002E-15  0.3367003E-02
    1      -14.124944   1.000000
    2      -12.700409   1.000000
    3      -12.641633   1.000000
    4      -12.090899   1.000000
    5      -11.576771   1.000000
    6      -11.330537   1.000000
    7      -11.325121   1.000000
    8      -11.264850   1.000000
    9      -11.113716   1.000000
   10      -10.858511   1.000000
   11      -10.857049   1.000000
   12      -10.381123   1.000000
   13      -10.286173   1.000000
   14      -10.278522   1.000000
   15       -9.883960   1.000000
   16       -9.883929   1.000000
   17       -9.095651   1.000000
   18       -8.999769   1.000000
   19       -8.989819   1.000000
   20       -8.696502   1.000000
   21       -8.682390   1.000000
   22       -8.321743   1.000000
   23       -8.319118   1.000000
   24       -8.234088   1.000000
   25       -8.127101   1.000000
   26       -8.124629   1.000000
   27       -7.482406   1.000000
   28       -7.177381   1.000000
   29       -6.733370   1.000000
   30       -6.724203   1.000000
   31       -6.622171   1.000000
   32       -6.315338   1.000000
   33       -6.202214   1.000000
   34       -5.807378   1.000000
   35       -5.758948   1.000000
   36       -5.702542   1.000000
   37       -5.689251   1.000000
   38       -5.567617   1.000000
   39       -5.401941   1.000000
   40       -5.310819   1.000000
   41       -5.296021   1.000000
   42       -5.251093   1.000000
   43       -5.057943   1.000000
   44       -5.035744   1.000000
   45       -4.984653   1.000000
   46       -4.919914   1.000000
   47       -4.814458   1.000000
   48       -4.755484   1.000000
   49       -4.728998   1.000000
   50       -4.724018   1.000000
   51       -4.598319   1.000000
   52       -4.566459   1.000000
   53       -4.543572   1.000000
   54       -4.359534   1.000000
   55       -4.249151   1.000000
   56       -4.246317   1.000000
   57       -4.189190   1.000000
   58       -4.176584   1.000000
   59       -4.008367   1.000000
   60       -3.796054   1.000000
   61       -3.637458   1.000000
   62       -3.601080   1.000000
   63       -3.593750   1.000000
   64       -3.559374   1.000000
   65       -3.512403   1.000000
   66       -3.448189   1.000000
   67       -3.440683   1.000000
   68       -3.406729   1.000000
   69       -3.306394   1.000000
   70       -3.230167   1.000000
   71       -2.876307   1.000000
   72       -2.839751   1.000000
   73       -2.673369   1.000000
   74       -2.582973   1.000000
   75       -2.502739   1.000000
   76       -2.459792   1.000000
   77       -2.418268   1.000000
   78       -2.339177   1.000000
   79       -2.277714   1.000000
   80       -2.161850   1.000000
   81       -1.937619   1.000000
   82       -1.728775   1.000000
   83       -1.362499   1.000000
   84       -1.333228   1.000000
   85       -1.290494   1.000000
   86       -1.180774   1.000000
   87       -1.106764   1.000000
   88       -1.058193   1.000000
   89       -0.554466   1.000000
   90       -0.526220   1.000000
   91       -0.403889   1.000278
   92       -0.190470   0.946002
   93       -0.137859   0.614051
   94       -0.089230   0.222868
   95        0.059196  -0.013145
   96        0.084804  -0.005904
   97        0.094973  -0.004094
   98        0.412982  -0.000000
   99        0.419580  -0.000000
  100        0.462365  -0.000000
  101        0.593682  -0.000000
  102        0.630022  -0.000000
  103        0.635799  -0.000000
  104        0.684475  -0.000000
  105        0.753191  -0.000000
  106        1.087048  -0.000000
  107        1.098886  -0.000000
  108        1.133549  -0.000000
  109        1.170688  -0.000000
  110        1.269420  -0.000000
  111        1.274558  -0.000000
  112        1.299825  -0.000000
  113        1.357827  -0.000000
  114        1.490093  -0.000000
  115        1.490530  -0.000000
  116        1.568465  -0.000000
  117        1.569638  -0.000000
  118        1.704550  -0.000000
  119        1.714406  -0.000000
  120        1.781717  -0.000000

  0.1111111E+00  0.3729374E-15  0.3860503E-15  0.6734007E-02
    1      -14.097993   1.000000
    2      -12.754956   1.000000
    3      -12.676120   1.000000
    4      -12.033738   1.000000
    5      -11.562642   1.000000
    6      -11.328325   1.000000
    7      -11.315808   1.000000
    8      -11.247457   1.000000
    9      -11.154792   1.000000
   10      -10.853572   1.000000
   11      -10.852503   1.000000
   12      -10.402536   1.000000
   13      -10.283339   1.000000
   14      -10.276510   1.000000
   15       -9.871747   1.000000
   16       -9.871495   1.000000
   17       -9.067779   1.000000
   18       -9.001384   1.000000
   19       -8.990479   1.000000
   20       -8.703869   1.000000
   21       -8.693758   1.000000
   22       -8.378903   1.000000
   23       -8.376813   1.000000
   24       -8.184368   1.000000
   25       -8.156794   1.000000
   26       -8.146631   1.000000
   27       -7.571208   1.000000
   28       -7.172137   1.000000
   29       -6.695784   1.000000
   30       -6.682699   1.000000
   31       -6.549391   1.000000
   32       -6.293154   1.000000
   33       -6.175229   1.000000
   34       -5.808329   1.000000
   35       -5.799469   1.000000
   36       -5.706454   1.000000
   37       -5.604503   1.000000
   38       -5.595511   1.000000
   39       -5.468212   1.000000
   40       -5.304948   1.000000
   41       -5.263641   1.000000
   42       -5.222891   1.000000
   43       -5.028260   1.000000
   44       -4.998407   1.000000
   45       -4.939432   1.000000
   46       -4.918531   1.000000
   47       -4.847547   1.000000
   48       -4.733538   1.000000
   49       -4.720740   1.000000
   50       -4.701042   1.000000
   51       -4.599431   1.000000
   52       -4.558429   1.000000
   53       -4.514197   1.000000
   54       -4.356792   1.000000
   55       -4.275703   1.000000
   56       -4.256871   1.000000
   57       -4.187234   1.000000
   58       -4.169789   1.000000
   59       -3.992323   1.000000
   60       -3.832253   1.000000
   61       -3.650227   1.000000
   62       -3.600031   1.000000
   63       -3.572721   1.000000
   64       -3.550063   1.000000
   65       -3.512361   1.000000
   66       -3.451886   1.000000
   67       -3.438986   1.000000
   68       -3.390804   1.000000
   69       -3.289015   1.000000
   70       -3.273490   1.000000
   71       -2.949175   1.000000
   72       -2.813874   1.000000
   73       -2.669363   1.000000
   74       -2.594084   1.000000
   75       -2.527884   1.000000
   76       -2.519559   1.000000
   77       -2.411878   1.000000
   78       -2.399886   1.000000
   79       -2.305231   1.000000
   80       -2.181418   1.000000
   81       -1.830620   1.000000
   82       -1.772287   1.000000
   83       -1.402295   1.000000
   84       -1.387253   1.000000
   85       -1.249125   1.000000
   86       -1.132092   1.000000
   87       -1.090281   1.000000
   88       -0.955980   1.000000
   89       -0.640641   1.000000
   90       -0.595414   1.000000
   91       -0.429926   1.000068
   92       -0.178554   0.892846
   93       -0.078751   0.155652
   94       -0.043238   0.007426
   95        0.023651  -0.028580
   96        0.069488  -0.009738
   97        0.081357  -0.006643
   98        0.399847  -0.000000
   99        0.443574  -0.000000
  100        0.453590  -0.000000
  101        0.623212  -0.000000
  102        0.642817  -0.000000
  103        0.662488  -0.000000
  104        0.706924  -0.000000
  105        0.794879  -0.000000
  106        1.084805  -0.000000
  107        1.096457  -0.000000
  108        1.115196  -0.000000
  109        1.205748  -0.000000
  110        1.264124  -0.000000
  111        1.290061  -0.000000
  112        1.339356  -0.000000
  113        1.384725  -0.000000
  114        1.495581  -0.000000
  115        1.517338  -0.000000
  116        1.553888  -0.000000
  117        1.565583  -0.000000
  118        1.709878  -0.000000
  119        1.716751  -0.000000
  120        1.781986  -0.000000

  0.2222222E+00  0.3922785E-15  0.3630220E-15  0.6734007E-02
    1      -14.017913   1.000000
    2      -12.988699   1.000000
    3      -12.604614   1.000000
    4      -11.982248   1.000000
    5      -11.523258   1.000000
    6      -11.328892   1.000000
    7      -11.296814   1.000000
    8      -11.225600   1.000000
    9      -11.189431   1.000000
   10      -10.839429   1.000000
   11      -10.838807   1.000000
   12      -10.483530   1.000000
   13      -10.281271   1.000000
   14      -10.276160   1.000000
   15       -9.832143   1.000000
   16       -9.831608   1.000000
   17       -9.012171   1.000000
   18       -9.001722   1.000000
   19       -8.950560   1.000000
   20       -8.736424   1.000000
   21       -8.735905   1.000000
   22       -8.500831   1.000000
   23       -8.500152   1.000000
   24       -8.246207   1.000000
   25       -8.243342   1.000000
   26       -8.002678   1.000000
   27       -7.784662   1.000000
   28       -7.106743   1.000000
   29       -6.643713   1.000000
   30       -6.616845   1.000000
   31       -6.382003   1.000000
   32       -6.334364   1.000000
   33       -6.099446   1.000000
   34       -5.954749   1.000000
   35       -5.741864   1.000000
   36       -5.703768   1.000000
   37       -5.538263   1.000000
   38       -5.467927   1.000000
   39       -5.435477   1.000000
   40       -5.271456   1.000000
   41       -5.235744   1.000000
   42       -5.142177   1.000000
   43       -5.129234   1.000000
   44       -5.008765   1.000000
   45       -4.916822   1.000000
   46       -4.830287   1.000000
   47       -4.814906   1.000000
   48       -4.707272   1.000000
   49       -4.682349   1.000000
   50       -4.658595   1.000000
   51       -4.552371   1.000000
   52       -4.549830   1.000000
   53       -4.448690   1.000000
   54       -4.362978   1.000000
   55       -4.295268   1.000000
   56       -4.286864   1.000000
   57       -4.161841   1.000000
   58       -4.143241   1.000000
   59       -3.970475   1.000000
   60       -3.916345   1.000000
   61       -3.694673   1.000000
   62       -3.630489   1.000000
   63       -3.569772   1.000000
   64       -3.518213   1.000000
   65       -3.516909   1.000000
   66       -3.455128   1.000000
   67       -3.420192   1.000000
   68       -3.375137   1.000000
   69       -3.346745   1.000000
   70       -3.186129   1.000000
   71       -3.083944   1.000000
   72       -2.755102   1.000000
   73       -2.711710   1.000000
   74       -2.687801   1.000000
   75       -2.631133   1.000000
   76       -2.603753   1.000000
   77       -2.529483   1.000000
   78       -2.393283   1.000000
   79       -2.388028   1.000000
   80       -2.142971   1.000000
   81       -1.907477   1.000000
   82       -1.598293   1.000000
   83       -1.496388   1.000000
   84       -1.473811   1.000000
   85       -1.171664   1.000000
   86       -1.032347   1.000000
   87       -1.023857   1.000000
   88       -0.832352   1.000000
   89       -0.731936   1.000000
   90       -0.716884   1.000000
   91       -0.516565   1.000000
   92       -0.243300   1.035269
   93       -0.048229   0.020862
   94       -0.002276  -0.035454
   95        0.014898  -0.032081
   96        0.067675  -0.010289
   97        0.245991  -0.000001
   98        0.372577  -0.000000
   99        0.408073  -0.000000
  100        0.414002  -0.000000
  101        0.692205  -0.000000
  102        0.704256  -0.000000
  103        0.738147  -0.000000
  104        0.755351  -0.000000
  105        0.874174  -0.000000
  106        1.030366  -0.000000
  107        1.136932  -0.000000
  108        1.137347  -0.000000
  109        1.243897  -0.000000
  110        1.291185  -0.000000
  111        1.301526  -0.000000
  112        1.402184  -0.000000
  113        1.431649  -0.000000
  114        1.480485  -0.000000
  115        1.533904  -0.000000
  116        1.574216  -0.000000
  117        1.635819  -0.000000
  118        1.704310  -0.000000
  119        1.721218  -0.000000
  120        1.774135  -0.000000

  0.3333333E+00  0.3713828E-15  0.3468587E-15  0.6734007E-02
    1      -13.887101   1.000000
    2      -13.246675   1.000000
    3      -12.490387   1.000000
    4      -12.039129   1.000000
    5      -11.467691   1.000000
    6      -11.343149   1.000000
    7      -11.278920   1.000000
    8      -11.254908   1.000000
    9      -11.088373   1.000000
   10      -10.819796   1.000000
   11      -10.819655   1.000000
   12      -10.622828   1.000000
   13      -10.288474   1.000000
   14      -10.285470   1.000000
   15       -9.767206   1.000000
   16       -9.766722   1.000000
   17       -9.006267   1.000000
   18       -9.003655   1.000000
   19       -8.816316   1.000000
   20       -8.811122   1.000000
   21       -8.791047   1.000000
   22       -8.602146   1.000000
   23       -8.594093   1.000000
   24       -8.346585   1.000000
   25       -8.343796   1.000000
   26       -8.046493   1.000000
   27       -7.757256   1.000000
   28       -6.945951   1.000000
   29       -6.720751   1.000000
   30       -6.575951   1.000000
   31       -6.574082   1.000000
   32       -6.169748   1.000000
   33       -6.050001   1.000000
   34       -5.970497   1.000000
   35       -5.622159   1.000000
   36       -5.601954   1.000000
   37       -5.431675   1.000000
   38       -5.417207   1.000000
   39       -5.350016   1.000000
   40       -5.319838   1.000000
   41       -5.207472   1.000000
   42       -5.171421   1.000000
   43       -5.107555   1.000000
   44       -4.976789   1.000000
   45       -4.908173   1.000000
   46       -4.822681   1.000000
   47       -4.787355   1.000000
   48       -4.661062   1.000000
   49       -4.645947   1.000000
   50       -4.615273   1.000000
   51       -4.518254   1.000000
   52       -4.482009   1.000000
   53       -4.404170   1.000000
   54       -4.344190   1.000000
   55       -4.321675   1.000000
   56       -4.225034   1.000000
   57       -4.130852   1.000000
   58       -4.082169   1.000000
   59       -4.068336   1.000000
   60       -3.886733   1.000000
   61       -3.799956   1.000000
   62       -3.647956   1.000000
   63       -3.639495   1.000000
   64       -3.572864   1.000000
   65       -3.500067   1.000000
   66       -3.497484   1.000000
   67       -3.397205   1.000000
   68       -3.374465   1.000000
   69       -3.236716   1.000000
   70       -3.133288   1.000000
   71       -3.071259   1.000000
   72       -2.901697   1.000000
   73       -2.891850   1.000000
   74       -2.725056   1.000000
   75       -2.724661   1.000000
   76       -2.623985   1.000000
   77       -2.602359   1.000000
   78       -2.476836   1.000000
   79       -2.425331   1.000000
   80       -2.076839   1.000000
   81       -1.977906   1.000000
   82       -1.653627   1.000000
   83       -1.583529   1.000000
   84       -1.313375   1.000000
   85       -1.075797   1.000000
   86       -1.011856   1.000000
   87       -0.951541   1.000000
   88       -0.933200   1.000000
   89       -0.872056   1.000000
   90       -0.605425   1.000000
   91       -0.444709   1.000028
   92       -0.404156   1.000275
   93       -0.025414  -0.023869
   94       -0.013864  -0.032816
   95        0.013587  -0.032536
   96        0.164894  -0.000169
   97        0.237751  -0.000002
   98        0.329416  -0.000000
   99        0.337271  -0.000000
  100        0.728895  -0.000000
  101        0.730597  -0.000000
  102        0.772201  -0.000000
  103        0.776989  -0.000000
  104        0.799800  -0.000000
  105        0.865476  -0.000000
  106        0.955722  -0.000000
  107        1.217424  -0.000000
  108        1.233990  -0.000000
  109        1.273286  -0.000000
  110        1.293899  -0.000000
  111        1.363794  -0.000000
  112        1.402670  -0.000000
  113        1.429028  -0.000000
  114        1.446978  -0.000000
  115        1.586996  -0.000000
  116        1.592679  -0.000000
  117        1.693997  -0.000000
  118        1.705703  -0.000000
  119        1.748217  -0.000000
  120        1.751063  -0.000000

  0.4444444E+00  0.3870091E-15  0.3932070E-15  0.6734007E-02
    1      -13.709839   1.000000
    2      -13.492876   1.000000
    3      -12.342678   1.000000
    4      -12.179803   1.000000
    5      -11.410496   1.000000
    6      -11.367497   1.000000
    7      -11.266562   1.000000
    8      -11.260428   1.000000
    9      -10.951455   1.000000
   10      -10.810008   1.000000
   11      -10.803886   1.000000
   12      -10.783361   1.000000
   13      -10.298752   1.000000
   14      -10.297824   1.000000
   15       -9.707417   1.000000
   16       -9.707197   1.000000
   17       -9.031637   1.000000
   18       -9.031282   1.000000
   19       -8.848901   1.000000
   20       -8.848859   1.000000
   21       -8.680136   1.000000
   22       -8.660545   1.000000
   23       -8.552227   1.000000
   24       -8.418569   1.000000
   25       -8.407623   1.000000
   26       -8.308477   1.000000
   27       -7.442511   1.000000
   28       -7.081338   1.000000
   29       -6.717648   1.000000
   30       -6.576668   1.000000
   31       -6.551577   1.000000
   32       -6.423191   1.000000
   33       -5.805394   1.000000
   34       -5.754344   1.000000
   35       -5.618740   1.000000
   36       -5.533399   1.000000
   37       -5.479870   1.000000
   38       -5.435840   1.000000
   39       -5.356567   1.000000
   40       -5.353520   1.000000
   41       -5.168142   1.000000
   42       -5.095069   1.000000
   43       -5.039621   1.000000
   44       -4.958646   1.000000
   45       -4.872869   1.000000
   46       -4.846958   1.000000
   47       -4.809283   1.000000
   48       -4.699653   1.000000
   49       -4.571912   1.000000
   50       -4.543865   1.000000
   51       -4.494829   1.000000
   52       -4.481289   1.000000
   53       -4.419839   1.000000
   54       -4.283867   1.000000
   55       -4.263269   1.000000
   56       -4.232232   1.000000
   57       -4.134970   1.000000
   58       -4.028695   1.000000
   59       -4.028164   1.000000
   60       -3.935316   1.000000
   61       -3.848960   1.000000
   62       -3.751876   1.000000
   63       -3.630505   1.000000
   64       -3.628393   1.000000
   65       -3.477780   1.000000
   66       -3.477027   1.000000
   67       -3.380356   1.000000
   68       -3.371324   1.000000
   69       -3.175109   1.000000
   70       -3.149863   1.000000
   71       -3.044766   1.000000
   72       -3.027286   1.000000
   73       -2.903097   1.000000
   74       -2.834793   1.000000
   75       -2.808704   1.000000
   76       -2.745052   1.000000
   77       -2.527796   1.000000
   78       -2.501326   1.000000
   79       -2.391820   1.000000
   80       -2.253514   1.000000
   81       -1.837079   1.000000
   82       -1.761229   1.000000
   83       -1.539276   1.000000
   84       -1.327127   1.000000
   85       -1.159139   1.000000
   86       -1.028180   1.000000
   87       -0.929266   1.000000
   88       -0.906674   1.000000
   89       -0.670332   1.000000
   90       -0.627668   1.000000
   91       -0.583166   1.000000
   92       -0.320460   1.009017
   93       -0.091091   0.235805
   94        0.013714  -0.032492
   95        0.024862  -0.028048
   96        0.145987  -0.000447
   97        0.259109  -0.000000
   98        0.261705  -0.000000
   99        0.479989  -0.000000
  100        0.652170  -0.000000
  101        0.767964  -0.000000
  102        0.771462  -0.000000
  103        0.804994  -0.000000
  104        0.824905  -0.000000
  105        1.060925  -0.000000
  106        1.105478  -0.000000
  107        1.171369  -0.000000
  108        1.286267  -0.000000
  109        1.306213  -0.000000
  110        1.382307  -0.000000
  111        1.384538  -0.000000
  112        1.422232  -0.000000
  113        1.434224  -0.000000
  114        1.462873  -0.000000
  115        1.467101  -0.000000
  116        1.569282  -0.000000
  117        1.576202  -0.000000
  118        1.662625  -0.000000
  119        1.686917  -0.000000
  120        1.720223  -0.000000

  0.3742002E-15  0.9090909E-01  0.3596334E-15  0.6734007E-02
    1      -14.091956   1.000000
    2      -12.671532   1.000000
    3      -12.646383   1.000000
    4      -12.059044   1.000000
    5      -11.564218   1.000000
    6      -11.511608   1.000000
    7      -11.449593   1.000000
    8      -11.252574   1.000000
    9      -11.118667   1.000000
   10      -10.844781   1.000000
   11      -10.825119   1.000000
   12      -10.367867   1.000000
   13      -10.241622   1.000000
   14      -10.232871   1.000000
   15       -9.873155   1.000000
   16       -9.868856   1.000000
   17       -9.140978   1.000000
   18       -9.081683   1.000000
   19       -9.042681   1.000000
   20       -8.736671   1.000000
   21       -8.703352   1.000000
   22       -8.188536   1.000000
   23       -8.161938   1.000000
   24       -8.096154   1.000000
   25       -8.009814   1.000000
   26       -8.009725   1.000000
   27       -7.536571   1.000000
   28       -7.145324   1.000000
   29       -6.761968   1.000000
   30       -6.706059   1.000000
   31       -6.588487   1.000000
   32       -6.308557   1.000000
   33       -6.224529   1.000000
   34       -5.877890   1.000000
   35       -5.778398   1.000000
   36       -5.641581   1.000000
   37       -5.614904   1.000000
   38       -5.579210   1.000000
   39       -5.438322   1.000000
   40       -5.368567   1.000000
   41       -5.327564   1.000000
   42       -5.246175   1.000000
   43       -5.205861   1.000000
   44       -5.050644   1.000000
   45       -4.975244   1.000000
   46       -4.972987   1.000000
   47       -4.858151   1.000000
   48       -4.755972   1.000000
   49       -4.749871   1.000000
   50       -4.713253   1.000000
   51       -4.629829   1.000000
   52       -4.568361   1.000000
   53       -4.551725   1.000000
   54       -4.430562   1.000000
   55       -4.290652   1.000000
   56       -4.201568   1.000000
   57       -4.175626   1.000000
   58       -4.103504   1.000000
   59       -4.057728   1.000000
   60       -3.774919   1.000000
   61       -3.665185   1.000000
   62       -3.638349   1.000000
   63       -3.610950   1.000000
   64       -3.538660   1.000000
   65       -3.524853   1.000000
   66       -3.436174   1.000000
   67       -3.426790   1.000000
   68       -3.380686   1.000000
   69       -3.285704   1.000000
   70       -3.232610   1.000000
   71       -3.029064   1.000000
   72       -2.832762   1.000000
   73       -2.573332   1.000000
   74       -2.562198   1.000000
   75       -2.523342   1.000000
   76       -2.481357   1.000000
   77       -2.430292   1.000000
   78       -2.346998   1.000000
   79       -2.235996   1.000000
   80       -2.173087   1.000000
   81       -1.954613   1.000000
   82       -1.659840   1.000000
   83       -1.414801   1.000000
   84       -1.376526   1.000000
   85       -1.336325   1.000000
   86       -1.172743   1.000000
   87       -1.152554   1.000000
   88       -1.114583   1.000000
   89       -0.650248   1.000000
   90       -0.506481   1.000000
   91       -0.422751   1.000101
   92       -0.246832   1.035458
   93       -0.242323   1.035142
   94       -0.162452   0.798668
   95        0.030516  -0.025490
   96        0.073079  -0.008709
   97        0.107797  -0.002487
   98        0.292919  -0.000000
   99        0.299922  -0.000000
  100        0.436868  -0.000000
  101        0.687258  -0.000000
  102        0.694053  -0.000000
  103        0.727925  -0.000000
  104        0.813744  -0.000000
  105        0.901704  -0.000000
  106        1.004297  -0.000000
  107        1.037880  -0.000000
  108        1.157554  -0.000000
  109        1.176772  -0.000000
  110        1.255907  -0.000000
  111        1.275402  -0.000000
  112        1.342038  -0.000000
  113        1.386337  -0.000000
  114        1.506753  -0.000000
  115        1.511653  -0.000000
  116        1.570382  -0.000000
  117        1.572367  -0.000000
  118        1.669039  -0.000000
  119        1.698758  -0.000000
  120        1.818799  -0.000000

  0.1111111E+00  0.9090909E-01  0.4822234E-15  0.6734007E-02
    1      -14.043236   1.000000
    2      -12.824116   1.000000
    3      -12.627661   1.000000
    4      -11.985817   1.000000
    5      -11.557189   1.000000
    6      -11.535949   1.000000
    7      -11.396991   1.000000
    8      -11.212846   1.000000
    9      -11.186616   1.000000
   10      -10.849993   1.000000
   11      -10.760606   1.000000
   12      -10.410418   1.000000
   13      -10.297236   1.000000
   14      -10.250326   1.000000
   15       -9.830598   1.000000
   16       -9.813196   1.000000
   17       -9.173642   1.000000
   18       -9.050859   1.000000
   19       -8.997326   1.000000
   20       -8.812799   1.000000
   21       -8.721102   1.000000
   22       -8.314797   1.000000
   23       -8.134019   1.000000
   24       -8.091051   1.000000
   25       -8.035931   1.000000
   26       -8.023389   1.000000
   27       -7.672531   1.000000
   28       -7.124152   1.000000
   29       -6.782505   1.000000
   30       -6.592067   1.000000
   31       -6.443271   1.000000
   32       -6.283078   1.000000
   33       -6.218671   1.000000
   34       -5.958419   1.000000
   35       -5.747088   1.000000
   36       -5.637778   1.000000
   37       -5.558813   1.000000
   38       -5.539831   1.000000
   39       -5.510786   1.000000
   40       -5.313952   1.000000
   41       -5.287381   1.000000
   42       -5.261831   1.000000
   43       -5.198544   1.000000
   44       -5.001237   1.000000
   45       -4.969299   1.000000
   46       -4.858262   1.000000
   47       -4.848162   1.000000
   48       -4.722745   1.000000
   49       -4.710468   1.000000
   50       -4.688144   1.000000
   51       -4.637348   1.000000
   52       -4.599488   1.000000
   53       -4.513367   1.000000
   54       -4.433059   1.000000
   55       -4.308695   1.000000
   56       -4.212197   1.000000
   57       -4.171143   1.000000
   58       -4.107397   1.000000
   59       -4.022594   1.000000
   60       -3.821015   1.000000
   61       -3.695904   1.000000
   62       -3.661691   1.000000
   63       -3.612084   1.000000
   64       -3.541801   1.000000
   65       -3.522078   1.000000
   66       -3.414764   1.000000
   67       -3.411286   1.000000
   68       -3.373739   1.000000
   69       -3.280665   1.000000
   70       -3.250643   1.000000
   71       -3.091553   1.000000
   72       -2.792770   1.000000
   73       -2.654381   1.000000
   74       -2.609349   1.000000
   75       -2.589718   1.000000
   76       -2.549329   1.000000
   77       -2.437070   1.000000
   78       -2.411270   1.000000
   79       -2.233078   1.000000
   80       -2.186496   1.000000
   81       -1.943215   1.000000
   82       -1.628049   1.000000
   83       -1.528445   1.000000
   84       -1.462726   1.000000
   85       -1.292143   1.000000
   86       -1.124895   1.000000
   87       -0.995426   1.000000
   88       -0.946162   1.000000
   89       -0.737066   1.000000
   90       -0.641251   1.000000
   91       -0.424010   1.000095
   92       -0.251957   1.035064
   93       -0.211772   1.006881
   94       -0.015637  -0.031908
   95       -0.007158  -0.034977
   96        0.064656  -0.011253
   97        0.078131  -0.007399
   98        0.225075  -0.000005
   99        0.261310  -0.000000
  100        0.601882  -0.000000
  101        0.664419  -0.000000
  102        0.700440  -0.000000
  103        0.771812  -0.000000
  104        0.874177  -0.000000
  105        0.879654  -0.000000
  106        0.982849  -0.000000
  107        1.111856  -0.000000
  108        1.124907  -0.000000
  109        1.204678  -0.000000
  110        1.214409  -0.000000
  111        1.322264  -0.000000
  112        1.378143  -0.000000
  113        1.435853  -0.000000
  114        1.472809  -0.000000
  115        1.559100  -0.000000
  116        1.562829  -0.000000
  117        1.590124  -0.000000
  118        1.649767  -0.000000
  119        1.747000  -0.000000
  120        1.815755  -0.000000

  0.2222222E+00  0.9090909E-01  0.3065600E-15  0.6734007E-02
    1      -13.942430   1.000000
    2      -13.071862   1.000000
    3      -12.538443   1.000000
    4      -11.976093   1.000000
    5      -11.591847   1.000000
    6      -11.488742   1.000000
    7      -11.344942   1.000000
    8      -11.262555   1.000000
    9      -11.132512   1.000000
   10      -10.818768   1.000000
   11      -10.672953   1.000000
   12      -10.517303   1.000000
   13      -10.383918   1.000000
   14      -10.290856   1.000000
   15       -9.750586   1.000000
   16       -9.711338   1.000000
   17       -9.187968   1.000000
   18       -9.110509   1.000000
   19       -8.899832   1.000000
   20       -8.830899   1.000000
   21       -8.799465   1.000000
   22       -8.472480   1.000000
   23       -8.242490   1.000000
   24       -8.108107   1.000000
   25       -8.072526   1.000000
   26       -7.892664   1.000000
   27       -7.876567   1.000000
   28       -7.022471   1.000000
   29       -6.794146   1.000000
   30       -6.493501   1.000000
   31       -6.464494   1.000000
   32       -6.194372   1.000000
   33       -6.187847   1.000000
   34       -6.009670   1.000000
   35       -5.757763   1.000000
   36       -5.535536   1.000000
   37       -5.524579   1.000000
   38       -5.451115   1.000000
   39       -5.433639   1.000000
   40       -5.344083   1.000000
   41       -5.271067   1.000000
   42       -5.181270   1.000000
   43       -5.169166   1.000000
   44       -4.988309   1.000000
   45       -4.943799   1.000000
   46       -4.828532   1.000000
   47       -4.820527   1.000000
   48       -4.737045   1.000000