   71   71   40    1
  0.2199523E+02  0.1053953E-08  0.6141200E-09  0.2412750E-08  0.5000000E-15
   1.0000000000000000E-004
  CAR 
 Name                                    
    266     23    176

  0.3742002E-15  0.3742002E-15  0.1262379E-14  0.2222222E-01
    1      -13.946008   1.000000
    2      -12.893347   1.000000
    3      -12.665061   1.000000
    4      -12.505861   1.000000
    5      -11.939969   1.000000
    6      -11.716397   1.000000
    7      -11.665045   1.000000
    8      -11.402627   1.000000
    9      -11.369734   1.000000
   10      -11.260940   1.000000
   11      -11.145408   1.000000
   12      -10.987205   1.000000
   13      -10.744810   1.000000
   14      -10.406167   1.000000
   15      -10.253053   1.000000
   16      -10.228576   1.000000
   17      -10.102280   1.000000
   18      -10.069473   1.000000
   19       -9.800365   1.000000
   20       -9.787572   1.000000
   21       -9.523128   1.000000
   22       -9.513568   1.000000
   23       -9.391783   1.000000
   24       -9.272183   1.000000
   25       -8.974838   1.000000
   26       -8.868329   1.000000
   27       -8.568166   1.000000
   28       -8.323662   1.000000
   29       -8.296927   1.000000
   30       -8.200419   1.000000
   31       -8.035316   1.000000
   32       -7.981986   1.000000
   33       -7.665820   1.000000
   34       -7.451014   1.000000
   35       -7.363463   1.000000
   36       -7.189224   1.000000
   37       -7.075941   1.000000
   38       -6.909955   1.000000
   39       -6.869808   1.000000
   40       -6.802713   1.000000
   41       -6.724638   1.000000
   42       -6.592769   1.000000
   43       -6.526401   1.000000
   44       -6.359938   1.000000
   45       -6.295495   1.000000
   46       -6.216785   1.000000
   47       -6.184487   1.000000
   48       -6.105212   1.000000
   49       -6.061185   1.000000
   50       -5.962155   1.000000
   51       -5.839045   1.000000
   52       -5.747853   1.000000
   53       -5.625040   1.000000
   54       -5.609176   1.000000
   55       -5.579100   1.000000
   56       -5.427198   1.000000
   57       -5.363463   1.000000
   58       -5.269904   1.000000
   59       -5.226088   1.000000
   60       -5.166202   1.000000
   61       -5.161657   1.000000
   62       -5.040448   1.000000
   63       -4.858329   1.000000
   64       -4.790108   1.000000
   65       -4.741734   1.000000
   66       -4.667540   1.000000
   67       -4.640444   1.000000
   68       -4.524539   1.000000
   69       -4.497684   1.000000
   70       -4.424350   1.000000
   71       -4.329106   1.000000
   72       -4.288636   1.000000
   73       -4.209710   1.000000
   74       -4.172562   1.000000
   75       -4.111780   1.000000
   76       -4.048850   1.000000
   77       -4.044175   1.000000
   78       -3.972541   1.000000
   79       -3.886741   1.000000
   80       -3.846877   1.000000
   81       -3.731359   1.000000
   82       -3.713596   1.000000
   83       -3.668439   1.000000
   84       -3.614899   1.000000
   85       -3.558432   1.000000
   86       -3.438521   1.000000
   87       -3.421790   1.000000
   88       -3.385655   1.000000
   89       -3.256831   1.000000
   90       -3.204870   1.000000
   91       -3.130074   1.000000
   92       -3.088901   1.000000
   93       -2.997506   1.000000
   94       -2.918840   1.000000
   95       -2.868054   1.000000
   96       -2.719581   1.000000
   97       -2.629539   1.000000
   98       -2.621464   1.000000
   99       -2.534224   1.000000
  100       -2.529737   1.000000
  101       -2.422278   1.000000
  102       -2.381291   1.000000
  103       -2.372585   1.000000
  104       -2.354940   1.000000
  105       -2.279322   1.000000
  106       -2.242116   1.000000
  107       -2.218249   1.000000
  108       -2.185126   1.000000
  109       -2.131443   1.000000
  110       -1.979395   1.000000
  111       -1.946473   1.000000
  112       -1.837345   1.000000
  113       -1.805872   1.000000
  114       -1.646760   1.000000
  115       -1.608930   1.000000
  116       -1.589143   1.000000
  117       -1.514866   1.000000
  118       -1.287960   1.000000
  119       -1.248580   1.000000
  120       -1.194891   1.000000
  121       -1.087032   1.000000
  122       -1.002365   1.000000
  123       -0.845833   1.000000
  124       -0.714861   1.000001
  125       -0.606075   1.000024
  126       -0.530278   1.000208
  127       -0.506528   1.000382
  128       -0.385055   1.005199
  129       -0.227066   1.033808
  130       -0.208578   1.035401
  131       -0.103842   0.966841
  132       -0.021873   0.749393
  133       -0.015863   0.727452
  134        0.068534   0.381707
  135        0.111374   0.219166
  136        0.191512   0.022015
  137        0.200622   0.009499
  138        0.293530  -0.035206
  139        0.319510  -0.031910
  140        0.493026  -0.003115
  141        0.543058  -0.001088
  142        0.577247  -0.000487
  143        0.650865  -0.000069
  144        0.670723  -0.000039
  145        0.796057  -0.000001
  146        0.884561  -0.000000
  147        0.905219  -0.000000
  148        0.949319  -0.000000
  149        0.981077  -0.000000
  150        1.044625  -0.000000
  151        1.086445  -0.000000
  152        1.126252  -0.000000
  153        1.164424  -0.000000
  154        1.173573  -0.000000
  155        1.185027  -0.000000
  156        1.215984  -0.000000
  157        1.315494  -0.000000
  158        1.326352  -0.000000
  159        1.366848  -0.000000
  160        1.413404  -0.000000
  161        1.429204  -0.000000
  162        1.443046  -0.000000
  163        1.444884  -0.000000
  164        1.480932  -0.000000
  165        1.519247  -0.000000
  166        1.588445  -0.000000
  167        1.623147  -0.000000
  168        1.669555  -0.000000
  169        1.700791  -0.000000
  170        1.759736  -0.000000
  171        1.846357  -0.000000
  172        1.899929  -0.000000
  173        1.920257  -0.000000
  174        1.949213  -0.000000
  175        2.018069  -0.000000
  176        2.137998  -0.000000

  0.2000000E+00  0.3742002E-15  0.1262379E-14  0.4444444E-01
    1      -13.919505   1.000000
    2      -13.017838   1.000000
    3      -12.763439   1.000000
    4      -12.205176   1.000000
    5      -12.007490   1.000000
    6      -11.938682   1.000000
    7      -11.424785   1.000000
    8      -11.391118   1.000000
    9      -11.259957   1.000000
   10      -11.202679   1.000000
   11      -11.117809   1.000000
   12      -10.986563   1.000000
   13      -10.722910   1.000000
   14      -10.549747   1.000000
   15      -10.452919   1.000000
   16      -10.243399   1.000000
   17      -10.233637   1.000000
   18      -10.096317   1.000000
   19       -9.797181   1.000000
   20       -9.779931   1.000000
   21       -9.554921   1.000000
   22       -9.537164   1.000000
   23       -9.362882   1.000000
   24       -9.230274   1.000000
   25       -8.956565   1.000000
   26       -8.748579   1.000000
   27       -8.427543   1.000000
   28       -8.280591   1.000000
   29       -8.214544   1.000000
   30       -8.132283   1.000000
   31       -8.045624   1.000000
   32       -7.984820   1.000000
   33       -7.596773   1.000000
   34       -7.477722   1.000000
   35       -7.440078   1.000000
   36       -7.256805   1.000000
   37       -7.106359   1.000000
   38       -6.943783   1.000000
   39       -6.910097   1.000000
   40       -6.867958   1.000000
   41       -6.774750   1.000000
   42       -6.696006   1.000000
   43       -6.550313   1.000000
   44       -6.483284   1.000000
   45       -6.350765   1.000000
   46       -6.278385   1.000000
   47       -6.081933   1.000000
   48       -5.995679   1.000000
   49       -5.957256   1.000000
   50       -5.953607   1.000000
   51       -5.868053   1.000000
   52       -5.822337   1.000000
   53       -5.608977   1.000000
   54       -5.540508   1.000000
   55       -5.491375   1.000000
   56       -5.472663   1.000000
   57       -5.348647   1.000000
   58       -5.238121   1.000000
   59       -5.217332   1.000000
   60       -5.109477   1.000000
   61       -5.038144   1.000000
   62       -5.022625   1.000000
   63       -4.975345   1.000000
   64       -4.764329   1.000000
   65       -4.707190   1.000000
   66       -4.697172   1.000000
   67       -4.587853   1.000000
   68       -4.502308   1.000000
   69       -4.475549   1.000000
   70       -4.424618   1.000000
   71       -4.323826   1.000000
   72       -4.241203   1.000000
   73       -4.204064   1.000000
   74       -4.193910   1.000000
   75       -4.088176   1.000000
   76       -4.059043   1.000000
   77       -4.049996   1.000000
   78       -4.004042   1.000000
   79       -3.902538   1.000000
   80       -3.901731   1.000000
   81       -3.818018   1.000000
   82       -3.767669   1.000000
   83       -3.690064   1.000000
   84       -3.583804   1.000000
   85       -3.541270   1.000000
   86       -3.526805   1.000000
   87       -3.387676   1.000000
   88       -3.367615   1.000000
   89       -3.278587   1.000000
   90       -3.197597   1.000000
   91       -3.172665   1.000000
   92       -3.061856   1.000000
   93       -2.970861   1.000000
   94       -2.915557   1.000000
   95       -2.861147   1.000000
   96       -2.750719   1.000000
   97       -2.707532   1.000000
   98       -2.645116   1.000000
   99       -2.592706   1.000000
  100       -2.494480   1.000000
  101       -2.491906   1.000000
  102       -2.415058   1.000000
  103       -2.381120   1.000000
  104       -2.314813   1.000000
  105       -2.259578   1.000000
  106       -2.185675   1.000000
  107       -2.144028   1.000000
  108       -2.140449   1.000000
  109       -2.033242   1.000000
  110       -1.942154   1.000000
  111       -1.901115   1.000000
  112       -1.775745   1.000000
  113       -1.772995   1.000000
  114       -1.631900   1.000000
  115       -1.596537   1.000000
  116       -1.561675   1.000000
  117       -1.472117   1.000000
  118       -1.288562   1.000000
  119       -1.250414   1.000000
  120       -1.194440   1.000000
  121       -1.164170   1.000000
  122       -1.008342   1.000000
  123       -0.922925   1.000000
  124       -0.748542   1.000000
  125       -0.680101   1.000002
  126       -0.599205   1.000030
  127       -0.556318   1.000103
  128       -0.487268   1.000612
  129       -0.301762   1.018107
  130       -0.234948   1.032610
  131       -0.135069   1.007148
  132       -0.089326   0.940379
  133        0.046263   0.474643
  134        0.054401   0.440360
  135        0.064163   0.399683
  136        0.170920   0.057514
  137        0.253927  -0.030840
  138        0.344850  -0.026619
  139        0.377100  -0.019243
  140        0.470151  -0.004790
  141        0.554507  -0.000838
  142        0.572629  -0.000545
  143        0.653414  -0.000064
  144        0.723594  -0.000008
  145        0.847150  -0.000000
  146        0.854926  -0.000000
  147        0.913062  -0.000000
  148        0.970102  -0.000000
  149        0.975235  -0.000000
  150        1.063138  -0.000000
  151        1.116777  -0.000000
  152        1.139378  -0.000000
  153        1.166790  -0.000000
  154        1.237512  -0.000000
  155        1.258235  -0.000000
  156        1.305502  -0.000000
  157        1.319607  -0.000000
  158        1.352061  -0.000000
  159        1.379527  -0.000000
  160        1.412003  -0.000000
  161        1.464335  -0.000000
  162        1.476330  -0.000000
  163        1.497284  -0.000000
  164        1.527967  -0.000000
  165        1.539667  -0.000000
  166        1.607048  -0.000000
  167        1.627234  -0.000000
  168        1.653785  -0.000000
  169        1.687352  -0.000000
  170        1.754195  -0.000000
  171        1.835144  -0.000000
  172        1.904663  -0.000000
  173        1.913662  -0.000000
  174        1.942253  -0.000000
  175        1.989421  -0.000000
  176        2.090392  -0.000000

  0.4000000E+00  0.3742002E-15  0.1262379E-14  0.4444444E-01
    1      -13.866590   1.000000
    2      -13.213660   1.000000
    3      -12.681735   1.000000
    4      -12.350075   1.000000
    5      -11.936547   1.000000
    6      -11.635268   1.000000
    7      -11.463149   1.000000
    8      -11.394172   1.000000
    9      -11.151470   1.000000
   10      -11.137745   1.000000
   11      -10.986958   1.000000
   12      -10.979618   1.000000
   13      -10.754961   1.000000
   14      -10.674107   1.000000
   15      -10.539562   1.000000
   16      -10.509636   1.000000
   17      -10.224122   1.000000
   18      -10.154493   1.000000
   19      -10.131018   1.000000
   20       -9.808131   1.000000
   21       -9.553716   1.000000
   22       -9.413224   1.000000
   23       -9.262930   1.000000
   24       -9.191788   1.000000
   25       -8.930656   1.000000
   26       -8.729073   1.000000
   27       -8.268217   1.000000
   28       -8.149387   1.000000
   29       -8.054565   1.000000
   30       -8.013680   1.000000
   31       -7.921584   1.000000
   32       -7.718925   1.000000
   33       -7.642311   1.000000
   34       -7.598173   1.000000
   35       -7.473871   1.000000
   36       -7.448754   1.000000
   37       -7.302695   1.000000
   38       -7.170662   1.000000
   39       -7.112394   1.000000
   40       -6.913848   1.000000
   41       -6.819998   1.000000
   42       -6.759224   1.000000
   43       -6.578464   1.000000
   44       -6.358574   1.000000
   45       -6.322057   1.000000
   46       -6.277471   1.000000
   47       -6.083566   1.000000
   48       -6.068152   1.000000
   49       -5.966123   1.000000
   50       -5.949415   1.000000
   51       -5.769164   1.000000
   52       -5.732300   1.000000
   53       -5.601407   1.000000
   54       -5.566255   1.000000
   55       -5.521685   1.000000
   56       -5.456293   1.000000
   57       -5.381536   1.000000
   58       -5.277340   1.000000
   59       -5.164257   1.000000
   60       -5.014061   1.000000
   61       -4.979391   1.000000
   62       -4.883982   1.000000
   63       -4.849389   1.000000
   64       -4.748465   1.000000
   65       -4.746804   1.000000
   66       -4.594097   1.000000
   67       -4.565077   1.000000
   68       -4.491289   1.000000
   69       -4.438518   1.000000
   70       -4.399039   1.000000
   71       -4.341657   1.000000
   72       -4.241593   1.000000
   73       -4.207320   1.000000
   74       -4.177709   1.000000
   75       -4.149073   1.000000
   76       -4.118836   1.000000
   77       -4.043854   1.000000
   78       -3.990248   1.000000
   79       -3.960290   1.000000
   80       -3.951373   1.000000
   81       -3.870393   1.000000
   82       -3.833115   1.000000
   83       -3.680626   1.000000
   84       -3.657875   1.000000
   85       -3.563323   1.000000
   86       -3.512996   1.000000
   87       -3.371150   1.000000
   88       -3.363408   1.000000
   89       -3.335107   1.000000
   90       -3.166399   1.000000
   91       -3.143323   1.000000
   92       -3.094204   1.000000
   93       -3.082890   1.000000
   94       -2.953739   1.000000
   95       -2.848298   1.000000
   96       -2.838218   1.000000
   97       -2.788211   1.000000
   98       -2.642669   1.000000
   99       -2.607365   1.000000
  100       -2.539894   1.000000
  101       -2.510779   1.000000
  102       -2.385329   1.000000
  103       -2.297528   1.000000
  104       -2.269430   1.000000
  105       -2.210737   1.000000
  106       -2.157624   1.000000
  107       -2.114734   1.000000
  108       -2.020118   1.000000
  109       -1.926336   1.000000
  110       -1.916982   1.000000
  111       -1.741932   1.000000
  112       -1.736516   1.000000
  113       -1.691009   1.000000
  114       -1.596676   1.000000
  115       -1.547104   1.000000
  116       -1.500247   1.000000
  117       -1.417870   1.000000
  118       -1.317339   1.000000
  119       -1.284452   1.000000
  120       -1.247935   1.000000
  121       -1.164171   1.000000
  122       -1.075057   1.000000
  123       -1.008475   1.000000
  124       -0.817504   1.000000
  125       -0.805115   1.000000
  126       -0.724189   1.000000
  127       -0.667965   1.000003
  128       -0.573356   1.000063
  129       -0.480139   1.000725
  130       -0.332178   1.012157
  131       -0.119110   0.989246
  132       -0.112644   0.980415
  133        0.009347   0.629115
  134        0.038562   0.507215
  135        0.075253   0.354444
  136        0.177253   0.045498
  137        0.269436  -0.034392
  138        0.322401  -0.031375
  139        0.405321  -0.013479
  140        0.517828  -0.001884
  141        0.526945  -0.001551
  142        0.624345  -0.000145
  143        0.710390  -0.000012
  144        0.726824  -0.000007
  145        0.857181  -0.000000
  146        0.867815  -0.000000
  147        0.959946  -0.000000
  148        0.980866  -0.000000
  149        1.090331  -0.000000
  150        1.150876  -0.000000
  151        1.161233  -0.000000
  152        1.173715  -0.000000
  153        1.233156  -0.000000
  154        1.267789  -0.000000
  155        1.326888  -0.000000
  156        1.344770  -0.000000
  157        1.365433  -0.000000
  158        1.373031  -0.000000
  159        1.427639  -0.000000
  160        1.450186  -0.000000
  161        1.487839  -0.000000
  162        1.519856  -0.000000
  163        1.536876  -0.000000
  164        1.573626  -0.000000
  165        1.624837  -0.000000
  166        1.630485  -0.000000
  167        1.636738  -0.000000
  168        1.699293  -0.000000
  169        1.724399  -0.000000
  170        1.766632  -0.000000
  171        1.806443  -0.000000
  172        1.854242  -0.000000
  173        1.875525  -0.000000
  174        1.881891  -0.000000
  175        1.972815  -0.000000
  176        2.080093  -0.000000

  0.3742002E-15  0.1111111E+00  0.1262379E-14  0.4444444E-01
    1      -13.900337   1.000000
    2      -12.852298   1.000000
    3      -12.629231   1.000000
    4      -12.474424   1.000000
    5      -12.021276   1.000000
    6      -11.683433   1.000000
    7      -11.639317   1.000000
    8      -11.442334   1.000000
    9      -11.399265   1.000000
   10      -11.302593   1.000000
   11      -11.119515   1.000000
   12      -11.002145   1.000000
   13      -10.777560   1.000000
   14      -10.415615   1.000000
   15      -10.252638   1.000000
   16      -10.209896   1.000000
   17      -10.103821   1.000000
   18      -10.081990   1.000000
   19       -9.787640   1.000000
   20       -9.766800   1.000000
   21       -9.550897   1.000000
   22       -9.512398   1.000000
   23       -9.383169   1.000000
   24       -9.280890   1.000000
   25       -8.994590   1.000000
   26       -8.844366   1.000000
   27       -8.558080   1.000000
   28       -8.345874   1.000000
   29       -8.289494   1.000000
   30       -8.207359   1.000000
   31       -7.993661   1.000000
   32       -7.895126   1.000000
   33       -7.751632   1.000000
   34       -7.470091   1.000000
   35       -7.421651   1.000000
   36       -7.291259   1.000000
   37       -7.056201   1.000000
   38       -6.952784   1.000000
   39       -6.827664   1.000000
   40       -6.724982   1.000000
   41       -6.693491   1.000000
   42       -6.586686   1.000000
   43       -6.492652   1.000000
   44       -6.381907   1.000000
   45       -6.259107   1.000000
   46       -6.207071   1.000000
   47       -6.171463   1.000000
   48       -6.098229   1.000000
   49       -6.092008   1.000000
   50       -5.974873   1.000000
   51       -5.843327   1.000000
   52       -5.711509   1.000000
   53       -5.694693   1.000000
   54       -5.538857   1.000000
   55       -5.518469   1.000000
   56       -5.439290   1.000000
   57       -5.350333   1.000000
   58       -5.218962   1.000000
   59       -5.193659   1.000000
   60       -5.165076   1.000000
   61       -5.118683   1.000000
   62       -5.008887   1.000000
   63       -4.849602   1.000000
   64       -4.816106   1.000000
   65       -4.722919   1.000000
   66       -4.679166   1.000000
   67       -4.592969   1.000000
   68       -4.529911   1.000000
   69       -4.495009   1.000000
   70       -4.461897   1.000000
   71       -4.382968   1.000000
   72       -4.325109   1.000000
   73       -4.277195   1.000000
   74       -4.115122   1.000000
   75       -4.083978   1.000000
   76       -4.059822   1.000000
   77       -4.017936   1.000000
   78       -3.962157   1.000000
   79       -3.917304   1.000000
   80       -3.852241   1.000000
   81       -3.775289   1.000000
   82       -3.720701   1.000000
   83       -3.682387   1.000000
   84       -3.621143   1.000000
   85       -3.554909   1.000000
   86       -3.452682   1.000000
   87       -3.389572   1.000000
   88       -3.384202   1.000000
   89       -3.300658   1.000000
   90       -3.215361   1.000000
   91       -3.147720   1.000000
   92       -3.135765   1.000000
   93       -3.060787   1.000000
   94       -2.965770   1.000000
   95       -2.896357   1.000000
   96       -2.800553   1.000000
   97       -2.741883   1.000000
   98       -2.596550   1.000000
   99       -2.574423   1.000000
  100       -2.519100   1.000000
  101       -2.458529   1.000000
  102       -2.431135   1.000000
  103       -2.412258   1.000000
  104       -2.323303   1.000000
  105       -2.289056   1.000000
  106       -2.223064   1.000000
  107       -2.204587   1.000000
  108       -2.185857   1.000000
  109       -2.097964   1.000000
  110       -1.992010   1.000000
  111       -1.919014   1.000000
  112       -1.821228   1.000000
  113       -1.735634   1.000000
  114       -1.610625   1.000000
  115       -1.573345   1.000000
  116       -1.555146   1.000000
  117       -1.512786   1.000000
  118       -1.342291   1.000000
  119       -1.231894   1.000000
  120       -1.149255   1.000000
  121       -0.982035   1.000000
  122       -0.927217   1.000000
  123       -0.841397   1.000000
  124       -0.766855   1.000000
  125       -0.663196   1.000004
  126       -0.591818   1.000037
  127       -0.466039   1.001005
  128       -0.372978   1.006417
  129       -0.329818   1.012570
  130       -0.233020   1.032926
  131       -0.125345   0.996882
  132       -0.082637   0.926425
  133        0.004003   0.650684
  134        0.044856   0.480589
  135        0.143586   0.120925
  136        0.239914  -0.024943
  137        0.252197  -0.030261
  138        0.299930  -0.034705
  139        0.371762  -0.020435
  140        0.437165  -0.008403
  141        0.551522  -0.000897
  142        0.608908  -0.000218
  143        0.637290  -0.000101
  144        0.710137  -0.000012
  145        0.761142  -0.000002
  146        0.807318  -0.000000
  147        0.921276  -0.000000
  148        0.950816  -0.000000
  149        0.992935  -0.000000
  150        1.030042  -0.000000
  151        1.086846  -0.000000
  152        1.103951  -0.000000
  153        1.143905  -0.000000
  154        1.197598  -0.000000
  155        1.230527  -0.000000
  156        1.291199  -0.000000
  157        1.314465  -0.000000
  158        1.333911  -0.000000
  159        1.344537  -0.000000
  160        1.383028  -0.000000
  161        1.404304  -0.000000
  162        1.427491  -0.000000
  163        1.468998  -0.000000
  164        1.484601  -0.000000
  165        1.540239  -0.000000
  166        1.572675  -0.000000
  167        1.584033  -0.000000
  168        1.627853  -0.000000
  169        1.722528  -0.000000
  170        1.786081  -0.000000
  171        1.844936  -0.000000
  172        1.870434  -0.000000
  173        1.926267  -0.000000
  174        1.993623  -0.000000
  175        2.088278  -0.000000
  176        2.112863  -0.000000

  0.2000000E+00  0.1111111E+00  0.1262379E-14  0.4444444E-01
    1      -13.874094   1.000000
    2      -12.977961   1.000000
    3      -12.725685   1.000000
    4      -12.172093   1.000000
    5      -12.022026   1.000000
    6      -11.974125   1.000000
    7      -11.478231   1.000000
    8      -11.424118   1.000000
    9      -11.234617   1.000000
   10      -11.226623   1.000000
   11      -11.091867   1.000000
   12      -11.007130   1.000000
   13      -10.748027   1.000000
   14      -10.535366   1.000000
   15      -10.460313   1.000000
   16      -10.252079   1.000000
   17      -10.212867   1.000000
   18      -10.113979   1.000000
   19       -9.808272   1.000000
   20       -9.759209   1.000000
   21       -9.562397   1.000000
   22       -9.540179   1.000000
   23       -9.357834   1.000000
   24       -9.238632   1.000000
   25       -8.953346   1.000000
   26       -8.740078   1.000000
   27       -8.419173   1.000000
   28       -8.300586   1.000000
   29       -8.220796   1.000000
   30       -8.148636   1.000000
   31       -8.029743   1.000000
   32       -7.860554   1.000000
   33       -7.667345   1.000000
   34       -7.530848   1.000000
   35       -7.467022   1.000000
   36       -7.327822   1.000000
   37       -7.088337   1.000000
   38       -6.959202   1.000000
   39       -6.912260   1.000000
   40       -6.800882   1.000000
   41       -6.748732   1.000000
   42       -6.623813   1.000000
   43       -6.548136   1.000000
   44       -6.524129   1.000000
   45       -6.352953   1.000000
   46       -6.304913   1.000000
   47       -6.136344   1.000000
   48       -6.061288   1.000000
   49       -5.925063   1.000000
   50       -5.903399   1.000000
   51       -5.814842   1.000000
   52       -5.758596   1.000000
   53       -5.597119   1.000000
   54       -5.557261   1.000000
   55       -5.515119   1.000000
   56       -5.442340   1.000000
   57       -5.284318   1.000000
   58       -5.226410   1.000000
   59       -5.188105   1.000000
   60       -5.067254   1.000000
   61       -5.037781   1.000000
   62       -5.006053   1.000000
   63       -4.944466   1.000000
   64       -4.761201   1.000000
   65       -4.712441   1.000000
   66       -4.657849   1.000000
   67       -4.564205   1.000000
   68       -4.516531   1.000000
   69       -4.478300   1.000000
   70       -4.420644   1.000000
   71       -4.351304   1.000000
   72       -4.312282   1.000000
   73       -4.273931   1.000000
   74       -4.154316   1.000000
   75       -4.120719   1.000000
   76       -4.051819   1.000000
   77       -4.038466   1.000000
   78       -3.994849   1.000000
   79       -3.918939   1.000000
   80       -3.844489   1.000000
   81       -3.837108   1.000000
   82       -3.792131   1.000000
   83       -3.684013   1.000000
   84       -3.628760   1.000000
   85       -3.546160   1.000000
   86       -3.486000   1.000000
   87       -3.428785   1.000000
   88       -3.360104   1.000000
   89       -3.311957   1.000000
   90       -3.239208   1.000000
   91       -3.147248   1.000000
   92       -3.131954   1.000000
   93       -3.029502   1.000000
   94       -2.959749   1.000000
   95       -2.897031   1.000000
   96       -2.826825   1.000000
   97       -2.706024   1.000000
   98       -2.684705   1.000000
   99       -2.606260   1.000000
  100       -2.532875   1.000000
  101       -2.506220   1.000000
  102       -2.485013   1.000000
  103       -2.342712   1.000000
  104       -2.287148   1.000000
  105       -2.236911   1.000000
  106       -2.201743   1.000000
  107       -2.177646   1.000000
  108       -2.130995   1.000000
  109       -2.072863   1.000000
  110       -1.935742   1.000000
  111       -1.870096   1.000000
  112       -1.789380   1.000000
  113       -1.700809   1.000000
  114       -1.625047   1.000000
  115       -1.560813   1.000000
  116       -1.534436   1.000000
  117       -1.492465   1.000000
  118       -1.351856   1.000000
  119       -1.240930   1.000000
  120       -1.183098   1.000000
  121       -1.091529   1.000000
  122       -0.965607   1.000000
  123       -0.852377   1.000000
  124       -0.799036   1.000000
  125       -0.699167   1.000001
  126       -0.659107   1.000004
  127       -0.494774   1.000511
  128       -0.389058   1.004839
  129       -0.373838   1.006323
  130       -0.258945   1.027827
  131       -0.140255   1.011847
  132       -0.068184   0.892417
  133        0.006188   0.641903
  134        0.049496   0.460993
  135        0.106347   0.236593
  136        0.162611   0.074796
  137        0.258327  -0.032139
  138        0.300867  -0.034611
  139        0.438519  -0.008223
  140        0.483460  -0.003744
  141        0.539788  -0.001170
  142        0.614522  -0.000188
  143        0.639947  -0.000094
  144        0.760548  -0.000002
  145        0.804408  -0.000000
  146        0.845171  -0.000000
  147        0.916891  -0.000000
  148        0.956838  -0.000000
  149        1.023509  -0.000000
  150        1.053343  -0.000000
  151        1.107689  -0.000000
  152        1.139979  -0.000000
  153        1.186755  -0.000000
  154        1.209861  -0.000000
  155        1.260225  -0.000000
  156        1.302992  -0.000000
  157        1.321616  -0.000000
  158        1.342964  -0.000000
  159        1.367431  -0.000000
  160        1.390990  -0.000000
  161        1.420784  -0.000000
  162        1.447879  -0.000000
  163        1.482217  -0.000000
  164        1.501418  -0.000000
  165        1.531319  -0.000000
  166        1.580467  -0.000000
  167        1.613418  -0.000000
  168        1.668593  -0.000000
  169        1.740337  -0.000000
  170        1.784482  -0.000000
  171        1.813719  -0.000000
  172        1.866500  -0.000000
  173        1.912964  -0.000000
  174        1.970782  -0.000000
  175        2.032880  -0.000000
  176        2.074752  -0.000000

  0.4000000E+00  0.1111111E+00  0.1262379E-14  0.4444444E-01
    1      -13.821716   1.000000
    2      -13.172773   1.000000
    3      -12.644829   1.000000
    4      -12.312128   1.000000
    5      -12.011976   1.000000
    6      -11.625699   1.000000
    7      -11.515404   1.000000
    8      -11.425797   1.000000
    9      -11.155334   1.000000
   10      -11.123128   1.000000
   11      -11.008637   1.000000