 running on   72 total cores
 distrk:  each k-point on   72 cores,    1 groups
 distr:  one band on    9 cores,    8 groups
 using from now: INCAR     
 vasp.5.4.4.18Apr17-6-g9f103f2a35 (build Dec  7 2020 12:43:57) complex           
 POSCAR found type information on POSCAR  Mo V  B  H 
 POSCAR found :  4 types and      71 ions
 scaLAPACK will be used
 LDA part: xc-table for Pade appr. of Perdew
 POSCAR, INCAR and KPOINTS ok, starting setup
 resort distribution
 resort distribution
 resort distribution
 resort distribution
 resort distribution
 resort distribution
 resort distribution
 resort distribution
 resort distribution
 resort distribution
 resort distribution
 resort distribution
 resort distribution
 resort distribution
 resort distribution
 resort distribution
 resort distribution
 resort distribution
 resort distribution
 resort distribution
 resort distribution
 resort distribution
 resort distribution
 resort distribution
 resort distribution
 resort distribution
 resort distribution
 resort distribution
 resort distribution
 resort distribution
 resort distribution
 resort distribution
 resort distribution
 resort distribution
 resort distribution
 resort distribution
 resort distribution
 resort distribution
 resort distribution
 resort distribution
 resort distribution
 resort distribution
 resort distribution
 resort distribution
 resort distribution
 resort distribution
 resort distribution
 resort distribution
 resort distribution
 resort distribution
 resort distribution
 resort distribution
 resort distribution
 resort distribution
 resort distribution
 resort distribution
 resort distribution
 resort distribution
 resort distribution
 resort distribution
 resort distribution
 resort distribution
 resort distribution
 resort distribution
 resort distribution
 resort distribution
 resort distribution
 resort distribution
 resort distribution
 resort distribution
 resort distribution
 resort distribution
 FFT: planning ...
 WAVECAR not read
 augmentation electrons   266.01689285397765     
 soft         electrons   0.0000000000000000     
 augmentation electrons   266.01689285397765     
 soft         electrons   0.0000000000000000     
 augmentation electrons   266.01689285397765     
 soft         electrons   0.0000000000000000     
 augmentation electrons   266.01689285397765     
 soft         electrons   0.0000000000000000     
 augmentation electrons   266.01689285397765     
 soft         electrons   0.0000000000000000     
 augmentation electrons   266.01689285397765     
 soft         electrons   0.0000000000000000     
 augmentation electrons   266.01689285397765     
 soft         electrons   0.0000000000000000     
 augmentation electrons   266.01689285397765     
 soft         electrons   0.0000000000000000     
 augmentation electrons   266.01689285397765     
 soft         electrons   0.0000000000000000     
 augmentation electrons   266.01689285397765     
 soft         electrons   0.0000000000000000     
 augmentation electrons   266.01689285397765     
 soft         electrons   0.0000000000000000     
 augmentation electrons   266.01689285397765     
 soft         electrons   0.0000000000000000     
 augmentation electrons   266.01689285397765     
 soft         electrons   0.0000000000000000     
 augmentation electrons   266.01689285397765     
 soft         electrons   0.0000000000000000     
 augmentation electrons   266.01689285397765     
 soft         electrons   0.0000000000000000     
 augmentation electrons   266.01689285397765     
 soft         electrons   0.0000000000000000     
 augmentation electrons   266.01689285397765     
 soft         electrons   0.0000000000000000     
 augmentation electrons   266.01689285397765     
 soft         electrons   0.0000000000000000     
 augmentation electrons   266.01689285397765     
 soft         electrons   0.0000000000000000     
 augmentation electrons   266.01689285397765     
 soft         electrons   0.0000000000000000     
 augmentation electrons   266.01689285397765     
 soft         electrons   0.0000000000000000     
 augmentation electrons   266.01689285397765     
 soft         electrons   0.0000000000000000     
 augmentation electrons   266.01689285397765     
 soft         electrons   0.0000000000000000     
 augmentation electrons   266.01689285397765     
 soft         electrons   0.0000000000000000     
 augmentation electrons   266.01689285397765     
 soft         electrons   0.0000000000000000     
 augmentation electrons   266.01689285397765     
 soft         electrons   0.0000000000000000     
 augmentation electrons   266.01689285397765     
 soft         electrons   0.0000000000000000     
 augmentation electrons   266.01689285397765     
 soft         electrons   0.0000000000000000     
 augmentation electrons   266.01689285397765     
 soft         electrons   0.0000000000000000     
 augmentation electrons   266.01689285397765     
 soft         electrons   0.0000000000000000     
 augmentation electrons   266.01689285397765     
 soft         electrons   0.0000000000000000     
 augmentation electrons   266.01689285397765     
 soft         electrons   0.0000000000000000     
 augmentation electrons   266.01689285397765     
 soft         electrons   0.0000000000000000     
 augmentation electrons   266.01689285397765     
 soft         electrons   0.0000000000000000     
 augmentation electrons   266.01689285397765     
 soft         electrons   0.0000000000000000     
 augmentation electrons   266.01689285397765     
 soft         electrons   0.0000000000000000     
 augmentation electrons   266.01689285397765     
 soft         electrons   0.0000000000000000     
 augmentation electrons   266.01689285397765     
 soft         electrons   0.0000000000000000     
 augmentation electrons   266.01689285397765     
 soft         electrons   0.0000000000000000     
 augmentation electrons   266.01689285397765     
 soft         electrons   0.0000000000000000     
 augmentation electrons   266.01689285397765     
 soft         electrons   0.0000000000000000     
 augmentation electrons   266.01689285397765     
 soft         electrons   0.0000000000000000     
 augmentation electrons   266.01689285397765     
 soft         electrons   0.0000000000000000     
 augmentation electrons   266.01689285397765     
 soft         electrons   0.0000000000000000     
 augmentation electrons   266.01689285397765     
 soft         electrons   0.0000000000000000     
 augmentation electrons   266.01689285397765     
 soft         electrons   0.0000000000000000     
 augmentation electrons   266.01689285397765     
 soft         electrons   0.0000000000000000     
 augmentation electrons   266.01689285397765     
 soft         electrons   0.0000000000000000     
 augmentation electrons   266.01689285397765     
 soft         electrons   0.0000000000000000     
 augmentation electrons   266.01689285397765     
 soft         electrons   0.0000000000000000     
 augmentation electrons   266.01689285397765     
 soft         electrons   0.0000000000000000     
 augmentation electrons   266.01689285397765     
 soft         electrons   0.0000000000000000     
 augmentation electrons   266.01689285397765     
 soft         electrons   0.0000000000000000     
 augmentation electrons   266.01689285397765     
 soft         electrons   0.0000000000000000     
 augmentation electrons   266.01689285397765     
 soft         electrons   0.0000000000000000     
 augmentation electrons   266.01689285397765     
 soft         electrons   0.0000000000000000     
 augmentation electrons   266.01689285397765     
 soft         electrons   0.0000000000000000     
 augmentation electrons   266.01689285397765     
 soft         electrons   0.0000000000000000     
 augmentation electrons   266.01689285397765     
 soft         electrons   0.0000000000000000     
 augmentation electrons   266.01689285397765     
 soft         electrons   0.0000000000000000     
 augmentation electrons   266.01689285397765     
 soft         electrons   0.0000000000000000     
 augmentation electrons   266.01689285397765     
 soft         electrons   0.0000000000000000     
 augmentation electrons   266.01689285397765     
 soft         electrons   0.0000000000000000     
 augmentation electrons   266.01689285397765     
 soft         electrons   0.0000000000000000     
 augmentation electrons   266.01689285397765     
 soft         electrons   0.0000000000000000     
 augmentation electrons   266.01689285397765     
 soft         electrons   0.0000000000000000     
 augmentation electrons   266.01689285397765     
 soft         electrons   0.0000000000000000     
 augmentation electrons   266.01689285397765     
 soft         electrons   0.0000000000000000     
 augmentation electrons   266.01689285397765     
 soft         electrons   0.0000000000000000     
 augmentation electrons   266.01689285397765     
 soft         electrons   0.0000000000000000     
 augmentation electrons   266.01689285397765     
 soft         electrons   0.0000000000000000     
 augmentation electrons   266.01689285397765     
 soft         electrons   0.0000000000000000     
 total        electrons   266.01689285397765     
 total        electrons   266.01689285397765     
 total        electrons   266.01689285397765     
 total        electrons   266.01689285397765     
 total        electrons   266.01689285397765     
 total        electrons   266.01689285397765     
 total        electrons   266.01689285397765     
 total        electrons   266.01689285397765     
 total        electrons   266.01689285397765     
 total        electrons   266.01689285397765     
 total        electrons   266.01689285397765     
 total        electrons   266.01689285397765     
 total        electrons   266.01689285397765     
 total        electrons   266.01689285397765     
 total        electrons   266.01689285397765     
 total        electrons   266.01689285397765     
 total        electrons   266.01689285397765     
 total        electrons   266.01689285397765     
 total        electrons   266.01689285397765     
 total        electrons   266.01689285397765     
 total        electrons   266.01689285397765     
 total        electrons   266.01689285397765     
 total        electrons   266.01689285397765     
 total        electrons   266.01689285397765     
 total        electrons   266.01689285397765     
 total        electrons   266.01689285397765     
 total        electrons   266.01689285397765     
 total        electrons   266.01689285397765     
 total        electrons   266.01689285397765     
 total        electrons   266.01689285397765     
 total        electrons   266.01689285397765     
 total        electrons   266.01689285397765     
 total        electrons   266.01689285397765     
 total        electrons   266.01689285397765     
 total        electrons   266.01689285397765     
 total        electrons   266.01689285397765     
 total        electrons   266.01689285397765     
 total        electrons   266.01689285397765     
 total        electrons   266.01689285397765     
 total        electrons   266.01689285397765     
 total        electrons   266.01689285397765     
 total        electrons   266.01689285397765     
 total        electrons   266.01689285397765     
 total        electrons   266.01689285397765     
 total        electrons   266.01689285397765     
 total        electrons   266.01689285397765     
 total        electrons   266.01689285397765     
 total        electrons   266.01689285397765     
 total        electrons   266.01689285397765     
 total        electrons   266.01689285397765     
 total        electrons   266.01689285397765     
 total        electrons   266.01689285397765     
 total        electrons   266.01689285397765     
 total        electrons   266.01689285397765     
 total        electrons   266.01689285397765     
 total        electrons   266.01689285397765     
 total        electrons   266.01689285397765     
 total        electrons   266.01689285397765     
 total        electrons   266.01689285397765     
 total        electrons   266.01689285397765     
 total        electrons   266.01689285397765     
 total        electrons   266.01689285397765     
 total        electrons   266.01689285397765     
 total        electrons   266.01689285397765     
 total        electrons   266.01689285397765     
 total        electrons   266.01689285397765     
 total        electrons   266.01689285397765     
 total        electrons   266.01689285397765     
 total        electrons   266.01689285397765     
 total        electrons   266.01689285397765     
 total        electrons   266.01689285397765     
 total        electrons   266.01689285397765     
 augmentation electrons   853.25631657386850     
 soft         electrons   0.0000000000000000     
 augmentation electrons   853.25631657386850     
 soft         electrons   0.0000000000000000     
 augmentation electrons   853.25631657386850     
 soft         electrons   0.0000000000000000     
 augmentation electrons   853.25631657386850     
 soft         electrons   0.0000000000000000     
 augmentation electrons   853.25631657386850     
 soft         electrons   0.0000000000000000     
 augmentation electrons   853.25631657386850     
 soft         electrons   0.0000000000000000     
 augmentation electrons   853.25631657386850     
 soft         electrons   0.0000000000000000     
 augmentation electrons   853.25631657386850     
 soft         electrons   0.0000000000000000     
 augmentation electrons   853.25631657386850     
 soft         electrons   0.0000000000000000     
 augmentation electrons   853.25631657386850     
 soft         electrons   0.0000000000000000     
 augmentation electrons   853.25631657386850     
 soft         electrons   0.0000000000000000     
 augmentation electrons   853.25631657386850     
 soft         electrons   0.0000000000000000     
 augmentation electrons   853.25631657386850     
 soft         electrons   0.0000000000000000     
 augmentation electrons   853.25631657386850     
 soft         electrons   0.0000000000000000     
 augmentation electrons   853.25631657386850     
 soft         electrons   0.0000000000000000     
 augmentation electrons   853.25631657386850     
 soft         electrons   0.0000000000000000     
 augmentation electrons   853.25631657386850     
 soft         electrons   0.0000000000000000     
 augmentation electrons   853.25631657386850     
 soft         electrons   0.0000000000000000     
 augmentation electrons   853.25631657386850     
 soft         electrons   0.0000000000000000     
 augmentation electrons   853.25631657386850     
 soft         electrons   0.0000000000000000     
 augmentation electrons   853.25631657386850     
 soft         electrons   0.0000000000000000     
 augmentation electrons   853.25631657386850     
 soft         electrons   0.0000000000000000     
 augmentation electrons   853.25631657386850     
 soft         electrons   0.0000000000000000     
 augmentation electrons   853.25631657386850     
 soft         electrons   0.0000000000000000     
 augmentation electrons   853.25631657386850     
 soft         electrons   0.0000000000000000     
 augmentation electrons   853.25631657386850     
 soft         electrons   0.0000000000000000     
 augmentation electrons   853.25631657386850     
 soft         electrons   0.0000000000000000     
 augmentation electrons   853.25631657386850     
 augmentation electrons   853.25631657386850     
 soft         electrons   0.0000000000000000     
 augmentation electrons   853.25631657386850     
 soft         electrons   0.0000000000000000     
 augmentation electrons   853.25631657386850     
 soft         electrons   0.0000000000000000     
 augmentation electrons   853.25631657386850     
 soft         electrons   0.0000000000000000     
 augmentation electrons   853.25631657386850     
 soft         electrons   0.0000000000000000     
 augmentation electrons   853.25631657386850     
 soft         electrons   0.0000000000000000     
 augmentation electrons   853.25631657386850     
 soft         electrons   0.0000000000000000     
 augmentation electrons   853.25631657386850     
 soft         electrons   0.0000000000000000     
 augmentation electrons   853.25631657386850     
 soft         electrons   0.0000000000000000     
 augmentation electrons   853.25631657386850     
 soft         electrons   0.0000000000000000     
 augmentation electrons   853.25631657386850     
 soft         electrons   0.0000000000000000     
 augmentation electrons   853.25631657386850     
 soft         electrons   0.0000000000000000     
 augmentation electrons   853.25631657386850     
 soft         electrons   0.0000000000000000     
 augmentation electrons   853.25631657386850     
 soft         electrons   0.0000000000000000     
 augmentation electrons   853.25631657386850     
 soft         electrons   0.0000000000000000     
 augmentation electrons   853.25631657386850     
 soft         electrons   0.0000000000000000     
 augmentation electrons   853.25631657386850     
 soft         electrons   0.0000000000000000     
 augmentation electrons   853.25631657386850     
 soft         electrons   0.0000000000000000     
 augmentation electrons   853.25631657386850     
 soft         electrons   0.0000000000000000     
 augmentation electrons   853.25631657386850     
 soft         electrons   0.0000000000000000     
 augmentation electrons   853.25631657386850     
 soft         electrons   0.0000000000000000     
 augmentation electrons   853.25631657386850     
 soft         electrons   0.0000000000000000     
 augmentation electrons   853.25631657386850     
 soft         electrons   0.0000000000000000     
 augmentation electrons   853.25631657386850     
 soft         electrons   0.0000000000000000     
 augmentation electrons   853.25631657386850     
 soft         electrons   0.0000000000000000     
 augmentation electrons   853.25631657386850     
 soft         electrons   0.0000000000000000     
 augmentation electrons   853.25631657386850     
 soft         electrons   0.0000000000000000     
 augmentation electrons   853.25631657386850     
 soft         electrons   0.0000000000000000     
 augmentation electrons   853.25631657386850     
 soft         electrons   0.0000000000000000     
 augmentation electrons   853.25631657386850     
 soft         electrons   0.0000000000000000     
 augmentation electrons   853.25631657386850     
 soft         electrons   0.0000000000000000     
 augmentation electrons   853.25631657386850     
 soft         electrons   0.0000000000000000     
 augmentation electrons   853.25631657386850     
 soft         electrons   0.0000000000000000     
 augmentation electrons   853.25631657386850     
 soft         electrons   0.0000000000000000     
 augmentation electrons   853.25631657386850     
 soft         electrons   0.0000000000000000     
 augmentation electrons   853.25631657386850     
 soft         electrons   0.0000000000000000     
 augmentation electrons   853.25631657386850     
 soft         electrons   0.0000000000000000     
 augmentation electrons   853.25631657386850     
 soft         electrons   0.0000000000000000     
 augmentation electrons   853.25631657386850     
 soft         electrons   0.0000000000000000     
 augmentation electrons   853.25631657386850     
 soft         electrons   0.0000000000000000     
 augmentation electrons   853.25631657386850     
 soft         electrons   0.0000000000000000     
 augmentation electrons   853.25631657386850     
 soft         electrons   0.0000000000000000     
 augmentation electrons   853.25631657386850     
 soft         electrons   0.0000000000000000     
 augmentation electrons   853.25631657386850     
 soft         electrons   0.0000000000000000     
 total        electrons   853.25631657386850     
 total        electrons   853.25631657386850     
 total        electrons   853.25631657386850     
 total        electrons   853.25631657386850     
 total        electrons   853.25631657386850     
 total        electrons   853.25631657386850     
 total        electrons   853.25631657386850     
 total        electrons   853.25631657386850     
 total        electrons   853.25631657386850     
 total        electrons   853.25631657386850     
 total        electrons   853.25631657386850     
 total        electrons   853.25631657386850     
 total        electrons   853.25631657386850     
 total        electrons   853.25631657386850     
 total        electrons   853.25631657386850     
 total        electrons   853.25631657386850     
 total        electrons   853.25631657386850     
 total        electrons   853.25631657386850     
 total        electrons   853.25631657386850     
 total        electrons   853.25631657386850     
 total        electrons   853.25631657386850     
 total        electrons   853.25631657386850     
 total        electrons   853.25631657386850     
 total        electrons   853.25631657386850     
 total        electrons   853.25631657386850     
 total        electrons   853.25631657386850     
 soft         electrons   0.0000000000000000     
 total        electrons   853.25631657386850     
 total        electrons   853.25631657386850     
 total        electrons   853.25631657386850     
 total        electrons   853.25631657386850     
 total        electrons   853.25631657386850     
 total        electrons   853.25631657386850     
 total        electrons   853.25631657386850     
 total        electrons   853.25631657386850     
 total        electrons   853.25631657386850     
 total        electrons   853.25631657386850     
 total        electrons   853.25631657386850     
 total        electrons   853.25631657386850     
 total        electrons   853.25631657386850     
 total        electrons   853.25631657386850     
 total        electrons   853.25631657386850     
 total        electrons   853.25631657386850     
 total        electrons   853.25631657386850     
 total        electrons   853.25631657386850     
 total        electrons   853.25631657386850     
 total        electrons   853.25631657386850     
 total        electrons   853.25631657386850     
 total        electrons   853.25631657386850     
 total        electrons   853.25631657386850     
 total        electrons   853.25631657386850     
 total        electrons   853.25631657386850     
 total        electrons   853.25631657386850     
 total        electrons   853.25631657386850     
 total        electrons   853.25631657386850     
 total        electrons   853.25631657386850     
 total        electrons   853.25631657386850     
 total        electrons   853.25631657386850     
 total        electrons   853.25631657386850     
 total        electrons   853.25631657386850     
 total        electrons   853.25631657386850     
 total        electrons   853.25631657386850     
 total        electrons   853.25631657386850     
 total        electrons   853.25631657386850     
 total        electrons   853.25631657386850     
 total        electrons   853.25631657386850     
 total        electrons   853.25631657386850     
 total        electrons   853.25631657386850     
 total        electrons   853.25631657386850     
 total        electrons   853.25631657386850     
 total        electrons   853.25631657386850     
 total        electrons   853.25631657386850     
 total        electrons   853.25631657386850     
 entering main loop
       N       E                     dE             d eps       ncg     rms          rms(c)
DAV:   1     0.226921215134E+04    0.22692E+04   -0.95160E+04  8096   0.123E+03
DAV:   2    -0.219373385328E+03   -0.24886E+04   -0.23043E+04  9344   0.301E+02
DAV:   3    -0.625434479996E+03   -0.40606E+03   -0.38697E+03 11424   0.142E+02
DAV:   4    -0.657926973978E+03   -0.32492E+02   -0.31286E+02 13080   0.449E+01
DAV:   5    -0.659630559151E+03   -0.17036E+01   -0.16585E+01 13760   0.102E+01    0.135E+02
RMM:   6    -0.618366015632E+03    0.41265E+02   -0.12248E+03 11320   0.913E+01    0.748E+01
RMM:   7    -0.720525539826E+03   -0.10216E+03   -0.39075E+02 10846   0.537E+01    0.555E+01
RMM:   8    -0.621547918069E+03    0.98978E+02   -0.19589E+02 11061   0.260E+01    0.438E+01
RMM:   9    -0.568076153916E+03    0.53472E+02   -0.44412E+01  9403   0.205E+01    0.273E+01
RMM:  10    -0.556320602869E+03    0.11756E+02   -0.39789E+01  9852   0.165E+01    0.211E+01
RMM:  11    -0.554580867528E+03    0.17397E+01   -0.96262E+00  9073   0.907E+00    0.173E+01
RMM:  12    -0.554215239815E+03    0.36563E+00   -0.42118E+00 10587   0.324E+00    0.153E+01
RMM:  13    -0.554044812501E+03    0.17043E+00   -0.49360E-01 10994   0.117E+00    0.145E+01
RMM:  14    -0.553951834377E+03    0.92978E-01   -0.93647E-01  9684   0.261E+00    0.127E+01
RMM:  15    -0.553350814152E+03    0.60102E+00   -0.18956E+00  8405   0.472E+00    0.658E+00
RMM:  16    -0.552825026871E+03    0.52579E+00   -0.15361E+00  8279   0.401E+00    0.401E+00
RMM:  17    -0.552757202542E+03    0.67824E-01   -0.10474E+00 10920   0.185E+00    0.271E+00
RMM:  18    -0.552742993358E+03    0.14209E-01   -0.38634E-01 10761   0.125E+00    0.214E+00
RMM:  19    -0.552707547942E+03    0.35445E-01   -0.13666E-01  9770   0.873E-01    0.119E+00
RMM:  20    -0.552705363752E+03    0.21842E-02   -0.61704E-02  9074   0.686E-01    0.101E+00
RMM:  21    -0.552693329174E+03    0.12035E-01   -0.27798E-02  8479   0.507E-01    0.393E-01
RMM:  22    -0.552694029052E+03   -0.69988E-03   -0.17554E-02 10621   0.247E-01    0.368E-01
RMM:  23    -0.552693581211E+03    0.44784E-03   -0.62204E-03  8780   0.214E-01    0.267E-01
RMM:  24    -0.552693620501E+03   -0.39290E-04   -0.40176E-03 10633   0.118E-01    0.130E-01
RMM:  25    -0.552694154035E+03   -0.53353E-03   -0.14603E-03 10660   0.745E-02    0.970E-02
RMM:  26    -0.552695425196E+03   -0.12712E-02   -0.75883E-04 10191   0.562E-02    0.775E-02
RMM:  27    -0.552696031832E+03   -0.60664E-03   -0.39617E-04 10015   0.421E-02    0.435E-02
RMM:  28    -0.552697109100E+03   -0.10773E-02   -0.36814E-04  9951   0.328E-02    0.394E-02
RMM:  29    -0.552697550005E+03   -0.44091E-03   -0.13664E-04  9907   0.244E-02    0.244E-02
RMM:  30    -0.552697878973E+03   -0.32897E-03   -0.10303E-04  9651   0.179E-02    0.152E-02
RMM:  31    -0.552697951661E+03   -0.72688E-04   -0.31662E-05  8390   0.926E-03    0.113E-02
RMM:  32    -0.552698079730E+03   -0.12807E-03   -0.16736E-05  7677   0.709E-03    0.672E-03
RMM:  33    -0.552698201575E+03   -0.12184E-03   -0.13825E-05  6688   0.661E-03    0.660E-03
RMM:  34    -0.552698323425E+03   -0.12185E-03   -0.91968E-06  6400   0.681E-03    0.107E-02
RMM:  35    -0.552698461848E+03   -0.13842E-03   -0.15872E-05  7088   0.122E-02    0.194E-02
RMM:  36    -0.552698543621E+03   -0.81772E-04   -0.14195E-05  6688   0.137E-02    0.136E-02
RMM:  37    -0.552698580711E+03   -0.37090E-04   -0.50382E-06  6043   0.505E-03    0.235E-03
RMM:  38    -0.552698629630E+03   -0.48920E-04   -0.48313E-06  5893   0.290E-03    0.585E-03
RMM:  39    -0.552698646223E+03   -0.16592E-04   -0.22510E-06  5468   0.458E-03    0.274E-03
RMM:  40    -0.552698655362E+03   -0.91397E-05   -0.12183E-06  5189   0.252E-03    0.169E-03
RMM:  41    -0.552698658777E+03   -0.34151E-05   -0.49849E-07  4403   0.190E-03    0.954E-04
RMM:  42    -0.552698661891E+03   -0.31138E-05   -0.45680E-07  4400   0.168E-03    0.107E-03
RMM:  43    -0.552698662685E+03   -0.79370E-06   -0.22046E-07  3340   0.990E-04
   1 F= -.55269866E+03 E0= -.55268720E+03  d E =-.552699E+03
 curvature:   0.00 expect dE= 0.000E+00 dE for cont linesearch  0.000E+00
 trial: gam= 0.00000 g(F)=  0.407E-01 g(S)=  0.000E+00 ort = 0.000E+00 (trialstep = 0.100E+01)
 search vector abs. value=  0.407E-01
 bond charge predicted
       N       E                     dE             d eps       ncg     rms          rms(c)
DAV:   1    -0.552727207047E+03   -0.28545E-01   -0.69935E-01  8880   0.168E+00    0.287E-01
RMM:   2    -0.552726995003E+03    0.21204E-03   -0.14568E-02  9677   0.326E-01    0.175E-01
RMM:   3    -0.552732484257E+03   -0.54893E-02   -0.61143E-03 10473   0.203E-01    0.593E-01
RMM:   4    -0.552726737265E+03    0.57470E-02   -0.25586E-03  9615   0.151E-01    0.912E-02
RMM:   5    -0.552726812945E+03   -0.75680E-04   -0.10898E-03 10250   0.767E-02    0.110E-01
RMM:   6    -0.552726701946E+03    0.11100E-03   -0.45785E-04  8629   0.665E-02    0.793E-02
RMM:   7    -0.552726654006E+03    0.47940E-04   -0.20452E-04  9828   0.369E-02    0.509E-02
RMM:   8    -0.552726639174E+03    0.14832E-04   -0.88171E-05  9631   0.246E-02    0.296E-02
RMM:   9    -0.552726634875E+03    0.42993E-05   -0.37497E-05  9271   0.143E-02    0.207E-02
RMM:  10    -0.552726632503E+03    0.23714E-05   -0.16517E-05  7463   0.129E-02    0.154E-02
RMM:  11    -0.552726630694E+03    0.18092E-05   -0.70100E-06  6544   0.779E-03    0.764E-03
RMM:  12    -0.552726630616E+03    0.78368E-07   -0.28728E-06  5621   0.585E-03
   2 F= -.55272663E+03 E0= -.55271531E+03  d E =-.279679E-01
 trial-energy change:   -0.027968  1 .order   -0.027609   -0.040703   -0.014515
 step:   1.4936(harm=  1.5542)  dis= 0.01715  next Energy=  -552.730256 (dE=-0.316E-01)
 bond charge predicted
       N       E                     dE             d eps       ncg     rms          rms(c)
DAV:   1    -0.552730446323E+03   -0.38156E-02   -0.17302E-01  8464   0.837E-01    0.148E-01
RMM:   2    -0.552730382151E+03    0.64172E-04   -0.36990E-03  9353   0.170E-01    0.945E-02
RMM:   3    -0.552731876624E+03   -0.14945E-02   -0.16207E-03 10373   0.106E-01    0.312E-01
RMM:   4    -0.552730306846E+03    0.15698E-02   -0.73513E-04  9612   0.803E-02    0.508E-02
RMM:   5    -0.552730322833E+03   -0.15987E-04   -0.28780E-04 10022   0.428E-02    0.595E-02
RMM:   6    -0.552730295258E+03    0.27575E-04   -0.12557E-04  8620   0.352E-02    0.449E-02
RMM:   7    -0.552730279944E+03    0.15313E-04   -0.58389E-05  9198   0.205E-02    0.282E-02
RMM:   8    -0.552730273842E+03    0.61022E-05   -0.25363E-05  8603   0.128E-02    0.132E-02
RMM:   9    -0.552730273167E+03    0.67547E-06   -0.90940E-06  6843   0.725E-03
   3 F= -.55273027E+03 E0= -.55271901E+03  d E =-.316105E-01
 curvature:  -0.77 expect dE=-0.341E-03 dE for cont linesearch -0.171E-07
 trial: gam= 0.01018 g(F)=  0.445E-03 g(S)=  0.000E+00 ort = 0.301E-04 (trialstep = 0.110E+01)
 search vector abs. value=  0.449E-03
 bond charge predicted
       N       E                     dE             d eps       ncg     rms          rms(c)
DAV:   1    -0.552730730942E+03   -0.45710E-03   -0.85667E-03  8544   0.192E-01    0.283E-02
RMM:   2    -0.552730755654E+03   -0.24712E-04   -0.17426E-04  8533   0.513E-02    0.420E-02
RMM:   3    -0.552730748436E+03    0.72181E-05   -0.44405E-05  9190   0.228E-02    0.290E-02
RMM:   4    -0.552730753886E+03   -0.54500E-05   -0.23896E-05  8627   0.136E-02    0.328E-02
RMM:   5    -0.552730743335E+03    0.10551E-04   -0.14413E-05  7342   0.128E-02    0.190E-02
RMM:   6    -0.552730743894E+03   -0.55865E-06   -0.13136E-05  6996   0.122E-02    0.190E-02
RMM:   7    -0.552730741581E+03    0.23126E-05   -0.57496E-06  6154   0.895E-03    0.871E-03
RMM:   8    -0.552730740501E+03    0.10804E-05   -0.12687E-06  5152   0.477E-03    0.333E-03
RMM:   9    -0.552730740474E+03    0.26877E-07   -0.51107E-07  4851   0.265E-03
   4 F= -.55273074E+03 E0= -.55271950E+03  d E =-.467307E-03
 ZBRENT: can't locate minimum, use default step
 trial-energy change:   -0.000467  1 .order   -0.000465   -0.000489   -0.000442
 step:   4.3949(harm= 11.4003)  dis= 0.00000  next Energy=  -552.732809 (dE=-0.254E-02)
 bond charge predicted
       N       E                     dE             d eps       ncg     rms          rms(c)
DAV:   1    -0.552731810352E+03   -0.10699E-02   -0.77373E-02  8416   0.572E-01    0.810E-02
RMM:   2    -0.552732002573E+03   -0.19222E-03   -0.12791E-03  8578   0.130E-01    0.128E-01
RMM:   3    -0.552731918500E+03    0.84073E-04   -0.33664E-04  9573   0.618E-02    0.755E-02
RMM:   4    -0.552732050496E+03   -0.13200E-03   -0.23780E-04 10724   0.313E-02    0.106E-01
RMM:   5    -0.552731884276E+03    0.16622E-03   -0.17970E-04  8997   0.396E-02    0.500E-02
RMM:   6    -0.552731879110E+03    0.51662E-05   -0.11015E-04  9556   0.292E-02    0.375E-02
RMM:   7    -0.552731864495E+03    0.14615E-04   -0.35194E-05  8443   0.188E-02    0.192E-02
RMM:   8    -0.552731859914E+03    0.45812E-05   -0.10712E-05  7089   0.898E-03    0.901E-03
RMM:   9    -0.552731859190E+03    0.72405E-06   -0.34493E-06  5737   0.542E-03
   5 F= -.55273186E+03 E0= -.55272066E+03  d E =-.158602E-02
 curvature:  -3.10 expect dE=-0.567E-03 dE for cont linesearch -0.506E-03
 ZBRENT: increasing intervall
 opt :  10.9873  next Energy=  -552.732783 (dE=-0.251E-02)
 bond charge predicted
       N       E                     dE             d eps       ncg     rms          rms(c)
DAV:   1    -0.552732610787E+03   -0.75087E-03   -0.30958E-01  8344   0.114E+00    0.164E-01
RMM:   2    -0.552733407793E+03   -0.79701E-03   -0.51708E-03  8707   0.257E-01    0.262E-01
RMM:   3    -0.552733021522E+03    0.38627E-03   -0.13585E-03  9557   0.124E-01    0.149E-01
RMM:   4    -0.552733611921E+03   -0.59040E-03   -0.10024E-03 10740   0.642E-02    0.221E-01
RMM:   5    -0.552732874156E+03    0.73777E-03   -0.74704E-04  8980   0.812E-02    0.951E-02
RMM:   6    -0.552732861357E+03    0.12798E-04   -0.42842E-04  9685   0.566E-02    0.749E-02
RMM:   7    -0.552732802029E+03    0.59328E-04   -0.14270E-04  8776   0.376E-02    0.384E-02
RMM:   8    -0.552732784661E+03    0.17368E-04   -0.47939E-05  8965   0.178E-02    0.176E-02
RMM:   9    -0.552732782162E+03    0.24994E-05   -0.15828E-05  7721   0.928E-03    0.867E-03
RMM:  10    -0.552732782363E+03   -0.20151E-06   -0.60254E-06  6505   0.566E-03
   6 F= -.55273278E+03 E0= -.55272167E+03  d E =-.250920E-02
 curvature:  -5.65 expect dE=-0.800E-03 dE for cont linesearch -0.771E-08
 trial: gam= 0.33873 g(F)=  0.142E-03 g(S)=  0.000E+00 ort = 0.783E-06 (trialstep = 0.308E+01)
 search vector abs. value=  0.194E-03
 bond charge predicted
       N       E                     dE             d eps       ncg     rms          rms(c)
DAV:   1    -0.552732756729E+03    0.25433E-04   -0.30896E-02  8528   0.355E-01    0.559E-02
RMM:   2    -0.552732787018E+03   -0.30289E-04   -0.60056E-04  8892   0.797E-02    0.598E-02
RMM:   3    -0.552732831649E+03   -0.44631E-04   -0.18834E-04  9560   0.435E-02    0.775E-02
RMM:   4    -0.552732823721E+03    0.79282E-05   -0.11363E-04 10069   0.255E-02    0.649E-02
RMM:   5    -0.552732766237E+03    0.57484E-04   -0.61299E-05  8836   0.246E-02    0.281E-02
RMM:   6    -0.552732765585E+03    0.65188E-06   -0.36357E-05  8934   0.169E-02    0.234E-02
RMM:   7    -0.552732761318E+03    0.42669E-05   -0.13580E-05  7410   0.125E-02    0.131E-02
RMM:   8    -0.552732759638E+03    0.16800E-05   -0.44300E-06  6013   0.660E-03    0.569E-03
RMM:   9    -0.552732760097E+03   -0.45911E-06   -0.20353E-06  5288   0.537E-03
   7 F= -.55273276E+03 E0= -.55272168E+03  d E =0.222660E-04
 trial-energy change:    0.000022  1 .order    0.000032   -0.000437    0.000500
 step:   1.4803(harm=  1.4345)  dis= 0.00074  next Energy=  -552.732888 (dE=-0.106E-03)
 bond charge predicted
       N       E                     dE             d eps       ncg     rms          rms(c)
DAV:   1    -0.552732891134E+03   -0.13150E-03   -0.82934E-03  8424   0.185E-01    0.286E-02
RMM:   2    -0.552732897629E+03   -0.64942E-05   -0.15748E-04  8704   0.415E-02    0.274E-02
RMM:   3    -0.552732916595E+03   -0.18966E-04   -0.52549E-05  9410   0.225E-02    0.437E-02
RMM:   4    -0.552732905503E+03    0.11092E-04   -0.27191E-05  9293   0.131E-02    0.280E-02
RMM:   5    -0.552732895288E+03    0.10215E-04   -0.13555E-05  7326   0.119E-02    0.156E-02
RMM:   6    -0.552732894364E+03    0.92415E-06   -0.79004E-06  6600   0.826E-03
   8 F= -.55273289E+03 E0= -.55272179E+03  d E =-.112001E-03
 curvature:  -0.98 expect dE=-0.594E-06 dE for cont linesearch -0.211E-07
 trial: gam= 0.02726 g(F)=  0.607E-06 g(S)=  0.000E+00 ort =-0.205E-05 (trialstep = 0.276E+01)
 search vector abs. value=  0.639E-06
 reached required accuracy - stopping structural energy minimisation
 augmentation electrons   27.653677470000641     
 soft         electrons   238.42183587112655     
 augmentation electrons   27.653677470000641     
 soft         electrons   238.42183587112655     
 augmentation electrons   27.653677470000641     
 soft         electrons   238.42183587112655     
 augmentation electrons   27.653677470000641     
 soft         electrons   238.42183587112655     
 augmentation electrons   27.653677470000641     
 soft         electrons   238.42183587112655     
 augmentation electrons   27.653677470000641     
 soft         electrons   238.42183587112655     
 augmentation electrons   27.653677470000641     
 soft         electrons   238.42183587112655     
 augmentation electrons   27.653677470000641     
 soft         electrons   238.42183587112655     
 augmentation electrons   27.653677470000641     
 soft         electrons   238.42183587112655     
 augmentation electrons   27.653677470000641     
 soft         electrons   238.42183587112655     
 augmentation electrons   27.653677470000641     
 soft         electrons   238.42183587112655     
 augmentation electrons   27.653677470000641     
 soft         electrons   238.42183587112655     
 augmentation electrons   27.653677470000641     
 soft         electrons   238.42183587112655     
 augmentation electrons   27.653677470000641     
 soft         electrons   238.42183587112655     
 augmentation electrons   27.653677470000641     
 soft         electrons   238.42183587112655     
 augmentation electrons   27.653677470000641     
 soft         electrons   238.42183587112655     
 augmentation electrons   27.653677470000641     
 soft         electrons   238.42183587112655     
 augmentation electrons   27.653677470000641     
 soft         electrons   238.42183587112655     
 augmentation electrons   27.653677470000641     
 soft         electrons   238.42183587112655     
 augmentation electrons   27.653677470000641     
 soft         electrons   238.42183587112655     
 augmentation electrons   27.653677470000641     
 soft         electrons   238.42183587112655     
 augmentation electrons   27.653677470000641     
 soft         electrons   238.42183587112655     
 augmentation electrons   27.653677470000641     
 soft         electrons   238.42183587112655     
 augmentation electrons   27.653677470000641     
 soft         electrons   238.42183587112655     
 augmentation electrons   27.653677470000641     
 soft         electrons   238.42183587112655     
 augmentation electrons   27.653677470000641     
 soft         electrons   238.42183587112655     
 augmentation electrons   27.653677470000641     
 soft         electrons   238.42183587112655     
 augmentation electrons   27.653677470000641     
 soft         electrons   238.42183587112655     
 augmentation electrons   27.653677470000641     
 soft         electrons   238.42183587112655     
 augmentation electrons   27.653677470000641     
 soft         electrons   238.42183587112655     
 augmentation electrons   27.653677470000641     
 soft         electrons   238.42183587112655     
 augmentation electrons   27.653677470000641     
 soft         electrons   238.42183587112655     
 augmentation electrons   27.653677470000641     
 soft         electrons   238.42183587112655     
 augmentation electrons   27.653677470000641     
 soft         electrons   238.42183587112655     
 augmentation electrons   27.653677470000641     
 soft         electrons   238.42183587112655     
 augmentation electrons   27.653677470000641     
 soft         electrons   238.42183587112655     
 augmentation electrons   27.653677470000641     
 soft         electrons   238.42183587112655     
 augmentation electrons   27.653677470000641     
 soft         electrons   238.42183587112655     
 augmentation electrons   27.653677470000641     
 soft         electrons   238.42183587112655     
 augmentation electrons   27.653677470000641     
 soft         electrons   238.42183587112655     
 augmentation electrons   27.653677470000641     
 soft         electrons   238.42183587112655     
 augmentation electrons   27.653677470000641     
 soft         electrons   238.42183587112655     
 augmentation electrons   27.653677470000641     
 soft         electrons   238.42183587112655     
 augmentation electrons   27.653677470000641     
 soft         electrons   238.42183587112655     
 augmentation electrons   27.653677470000641     
 soft         electrons   238.42183587112655     
 augmentation electrons   27.653677470000641     
 soft         electrons   238.42183587112655     
 augmentation electrons   27.653677470000641     
 soft         electrons   238.42183587112655     
 augmentation electrons   27.653677470000641     
 soft         electrons   238.42183587112655     
 augmentation electrons   27.653677470000641     
 soft         electrons   238.42183587112655     
 augmentation electrons   27.653677470000641     
 soft         electrons   238.42183587112655     
 augmentation electrons   27.653677470000641     
 augmentation electrons   27.653677470000641     
 soft         electrons   238.42183587112655     
 augmentation electrons   27.653677470000641     
 soft         electrons   238.42183587112655     
 augmentation electrons   27.653677470000641     
 soft         electrons   238.42183587112655     
 augmentation electrons   27.653677470000641     
 soft         electrons   238.42183587112655     
 augmentation electrons   27.653677470000641     
 soft         electrons   238.42183587112655     
 augmentation electrons   27.653677470000641     
 soft         electrons   238.42183587112655     
 augmentation electrons   27.653677470000641     
 soft         electrons   238.42183587112655     
 augmentation electrons   27.653677470000641     
 soft         electrons   238.42183587112655     
 augmentation electrons   27.653677470000641     
 soft         electrons   238.42183587112655     
 augmentation electrons   27.653677470000641     
 soft         electrons   238.42183587112655     
 augmentation electrons   27.653677470000641     
 soft         electrons   238.42183587112655     
 augmentation electrons   27.653677470000641     
 soft         electrons   238.42183587112655     
 augmentation electrons   27.653677470000641     
 soft         electrons   238.42183587112655     
 augmentation electrons   27.653677470000641     
 soft         electrons   238.42183587112655     
 augmentation electrons   27.653677470000641     
 soft         electrons   238.42183587112655     
 augmentation electrons   27.653677470000641     
 soft         electrons   238.42183587112655     
 augmentation electrons   27.653677470000641     
 soft         electrons   238.42183587112655     
 augmentation electrons   27.653677470000641     
 soft         electrons   238.42183587112655     
 augmentation electrons   27.653677470000641     
 soft         electrons   238.42183587112655     
 augmentation electrons   27.653677470000641     
 soft         electrons   238.42183587112655     
 augmentation electrons   27.653677470000641     
 soft         electrons   238.42183587112655     
 soft         electrons   238.42183587112655     
 total        electrons   266.07551334112719     
 total        electrons   266.07551334112719     
 total        electrons   266.07551334112719     
 total        electrons   266.07551334112719     
 total        electrons   266.07551334112719     
 total        electrons   266.07551334112719     
 total        electrons   266.07551334112719     
 total        electrons   266.07551334112719     
 total        electrons   266.07551334112719     
 total        electrons   266.07551334112719     
 total        electrons   266.07551334112719     
 total        electrons   266.07551334112719     
 total        electrons   266.07551334112719     
 total        electrons   266.07551334112719     
 total        electrons   266.07551334112719     
 total        electrons   266.07551334112719     
 total        electrons   266.07551334112719     
 total        electrons   266.07551334112719     
 total        electrons   266.07551334112719     
 total        electrons   266.07551334112719     
 total        electrons   266.07551334112719     
 total        electrons   266.07551334112719     
 total        electrons   266.07551334112719     
 total        electrons   266.07551334112719     
 total        electrons   266.07551334112719     
 total        electrons   266.07551334112719     
 total        electrons   266.07551334112719     
 total        electrons   266.07551334112719     
 total        electrons   266.07551334112719     
 total        electrons   266.07551334112719     
 total        electrons   266.07551334112719     
 total        electrons   266.07551334112719     
 total        electrons   266.07551334112719     
 total        electrons   266.07551334112719     
 total        electrons   266.07551334112719     
 total        electrons   266.07551334112719     
 total        electrons   266.07551334112719     
 total        electrons   266.07551334112719     
 total        electrons   266.07551334112719     
 total        electrons   266.07551334112719     
 total        electrons   266.07551334112719     
 total        electrons   266.07551334112719     
 total        electrons   266.07551334112719     
 total        electrons   266.07551334112719     
 total        electrons   266.07551334112719     
 total        electrons   266.07551334112719     
 total        electrons   266.07551334112719     
 total        electrons   266.07551334112719     
 total        electrons   266.07551334112719     
 total        electrons   266.07551334112719     
 total        electrons   266.07551334112719     
 total        electrons   266.07551334112719     
 total        electrons   266.07551334112719     
 total        electrons   266.07551334112719     
 total        electrons   266.07551334112719     
 total        electrons   266.07551334112719     
 total        electrons   266.07551334112719     
 total        electrons   266.07551334112719     
 total        electrons   266.07551334112719     
 total        electrons   266.07551334112719     
 total        electrons   266.07551334112719     
 total        electrons   266.07551334112719     
 total        electrons   266.07551334112719     
 total        electrons   266.07551334112719     
 total        electrons   266.07551334112719     
 total        electrons   266.07551334112719     
 total        electrons   266.07551334112719     
 total        electrons   266.07551334112719     
 total        electrons   266.07551334112719     
 total        electrons   266.07551334112719     
 total        electrons   266.07551334112719     
 total        electrons   266.07551334112719     
Note: The following floating-point exceptions are signalling: IEEE_OVERFLOW_FLAG
Note: The following floating-point exceptions are signalling: IEEE_OVERFLOW_FLAG
Note: The following floating-point exceptions are signalling: IEEE_OVERFLOW_FLAG
Note: The following floating-point exceptions are signalling: IEEE_OVERFLOW_FLAG
Note: The following floating-point exceptions are signalling: IEEE_OVERFLOW_FLAG
Note: The following floating-point exceptions are signalling: IEEE_OVERFLOW_FLAG
Note: The following floating-point exceptions are signalling: IEEE_OVERFLOW_FLAG
Note: The following floating-point exceptions are signalling: IEEE_OVERFLOW_FLAG
Note: The following floating-point exceptions are signalling: IEEE_OVERFLOW_FLAG
Note: The following floating-point exceptions are signalling: IEEE_OVERFLOW_FLAG
Note: The following floating-point exceptions are signalling: IEEE_OVERFLOW_FLAG
Note: The following floating-point exceptions are signalling: IEEE_OVERFLOW_FLAG
Note: The following floating-point exceptions are signalling: IEEE_OVERFLOW_FLAG
Note: The following floating-point exceptions are signalling: IEEE_OVERFLOW_FLAG
Note: The following floating-point exceptions are signalling: IEEE_OVERFLOW_FLAG
Note: The following floating-point exceptions are signalling: IEEE_OVERFLOW_FLAG
Note: The following floating-point exceptions are signalling: IEEE_OVERFLOW_FLAG
Note: The following floating-point exceptions are signalling: IEEE_OVERFLOW_FLAG
Note: The following floating-point exceptions are signalling: IEEE_OVERFLOW_FLAG
Note: The following floating-point exceptions are signalling: IEEE_OVERFLOW_FLAG
Note: The following floating-point exceptions are signalling: IEEE_OVERFLOW_FLAG
Note: The following floating-point exceptions are signalling: IEEE_OVERFLOW_FLAG
Note: The following floating-point exceptions are signalling: IEEE_OVERFLOW_FLAG
Note: The following floating-point exceptions are signalling: IEEE_OVERFLOW_FLAG
Note: The following floating-point exceptions are signalling: IEEE_OVERFLOW_FLAG
Note: The following floating-point exceptions are signalling: IEEE_OVERFLOW_FLAG
Note: The following floating-point exceptions are signalling: IEEE_OVERFLOW_FLAG
Note: The following floating-point exceptions are signalling: IEEE_OVERFLOW_FLAG
Note: The following floating-point exceptions are signalling: IEEE_OVERFLOW_FLAG
Note: The following floating-point exceptions are signalling: IEEE_OVERFLOW_FLAG
Note: The following floating-point exceptions are signalling: IEEE_OVERFLOW_FLAG
Note: The following floating-point exceptions are signalling: IEEE_OVERFLOW_FLAG
Note: The following floating-point exceptions are signalling: IEEE_OVERFLOW_FLAG
Note: The following floating-point exceptions are signalling: IEEE_OVERFLOW_FLAG
Note: The following floating-point exceptions are signalling: IEEE_OVERFLOW_FLAG
Note: The following floating-point exceptions are signalling: IEEE_OVERFLOW_FLAG
Note: The following floating-point exceptions are signalling: IEEE_OVERFLOW_FLAG
Note: The following floating-point exceptions are signalling: IEEE_OVERFLOW_FLAG
Note: The following floating-point exceptions are signalling: IEEE_OVERFLOW_FLAG
Note: The following floating-point exceptions are signalling: IEEE_OVERFLOW_FLAG
Note: The following floating-point exceptions are signalling: IEEE_OVERFLOW_FLAG
Note: The following floating-point exceptions are signalling: IEEE_OVERFLOW_FLAG
Note: The following floating-point exceptions are signalling: IEEE_OVERFLOW_FLAG
Note: The following floating-point exceptions are signalling: IEEE_OVERFLOW_FLAG
Note: The following floating-point exceptions are signalling: IEEE_OVERFLOW_FLAG
Note: The following floating-point exceptions are signalling: IEEE_OVERFLOW_FLAG
Note: The following floating-point exceptions are signalling: IEEE_OVERFLOW_FLAG
Note: The following floating-point exceptions are signalling: IEEE_OVERFLOW_FLAG
Note: The following floating-point exceptions are signalling: IEEE_OVERFLOW_FLAG
Note: The following floating-point exceptions are signalling: IEEE_OVERFLOW_FLAG
Note: The following floating-point exceptions are signalling: IEEE_OVERFLOW_FLAG
Note: The following floating-point exceptions are signalling: IEEE_OVERFLOW_FLAG
Note: The following floating-point exceptions are signalling: IEEE_OVERFLOW_FLAG
Note: The following floating-point exceptions are signalling: IEEE_OVERFLOW_FLAG
Note: The following floating-point exceptions are signalling: IEEE_OVERFLOW_FLAG
Note: The following floating-point exceptions are signalling: IEEE_OVERFLOW_FLAG
Note: The following floating-point exceptions are signalling: IEEE_OVERFLOW_FLAG
Note: The following floating-point exceptions are signalling: IEEE_OVERFLOW_FLAG
Note: The following floating-point exceptions are signalling: IEEE_OVERFLOW_FLAG
Note: The following floating-point exceptions are signalling: IEEE_OVERFLOW_FLAG
Note: The following floating-point exceptions are signalling: IEEE_OVERFLOW_FLAG
Note: The following floating-point exceptions are signalling: IEEE_OVERFLOW_FLAG
Note: The following floating-point exceptions are signalling: IEEE_OVERFLOW_FLAG
Note: The following floating-point exceptions are signalling: IEEE_OVERFLOW_FLAG
Note: The following floating-point exceptions are signalling: IEEE_OVERFLOW_FLAG
Note: The following floating-point exceptions are signalling: IEEE_OVERFLOW_FLAG
Note: The following floating-point exceptions are signalling: IEEE_OVERFLOW_FLAG
Note: The following floating-point exceptions are signalling: IEEE_OVERFLOW_FLAG
Note: The following floating-point exceptions are signalling: IEEE_OVERFLOW_FLAG
Note: The following floating-point exceptions are signalling: IEEE_OVERFLOW_FLAG
Note: The following floating-point exceptions are signalling: IEEE_OVERFLOW_FLAG
Note: The following floating-point exceptions are signalling: IEEE_OVERFLOW_FLAG
