   24   24    1    1
  0.8358452E+01  0.6079819E-09  0.6079729E-09  0.6270770E-09  0.5000000E-15
   1.0000000000000000E-004
  CAR 
 Name                                    
     92    666     60

  0.3742002E-15  0.3742002E-15  0.3742002E-15  0.7513148E-03
    1       -5.702905   1.000000
    2       -3.501407   1.000000
    3       -2.433013   1.000000
    4       -2.187969   1.000000
    5       -1.929215   1.000000
    6       -1.739730   1.000000
    7       -1.733849   1.000000
    8       -1.721471   1.000000
    9       -1.396044   1.000000
   10       -1.339488   1.000000
   11       -1.235756   1.000000
   12        0.047447   1.000000
   13        0.360086   1.000000
   14        0.569237   1.000000
   15        0.709867   1.000000
   16        2.518185   1.000000
   17        2.680718   1.000000
   18        2.927365   1.000000
   19        3.091697   1.000000
   20        3.269653   1.000000
   21        3.774573   1.000000
   22        3.859824   1.000000
   23        3.908882   1.000000
   24        4.212298   1.000000
   25        4.558217   1.000000
   26        4.591259   1.000000
   27        4.610780   1.000000
   28        4.640363   1.000000
   29        4.670716   1.000000
   30        4.704025   1.000000
   31        4.710526   1.000000
   32        4.765948   1.000000
   33        4.821645   1.000000
   34        4.878053   1.000000
   35        5.009945   1.000000
   36        5.682893   1.000000
   37        6.094093   1.000000
   38        6.850485   1.000000
   39        6.903428   1.000000
   40        7.355900   1.000000
   41        7.411455   1.000000
   42        7.523007   1.000000
   43        7.632838   1.000000
   44        8.572098   1.000000
   45        8.577334   1.000000
   46        8.759468   1.000000
   47        9.237262   0.000000
   48        9.271059   0.000000
   49        9.397136   0.000000
   50        9.975253   0.000000
   51        9.979372   0.000000
   52       10.041485   0.000000
   53       10.126182   0.000000
   54       10.141987   0.000000
   55       10.192090   0.000000
   56       10.295189   0.000000
   57       10.339943   0.000000
   58       10.420210   0.000000
   59       10.631685   0.000000
   60       10.652111   0.000000

  0.9090909E-01  0.3564163E-15  0.3742003E-15  0.1502630E-02
    1       -5.662855   1.000000
    2       -3.487403   1.000000
    3       -2.442328   1.000000
    4       -2.200940   1.000000
    5       -2.179415   1.000000
    6       -1.978708   1.000000
    7       -1.883761   1.000000
    8       -1.875800   1.000000
    9       -1.131436   1.000000
   10       -1.125513   1.000000
   11       -0.815137   1.000000
   12        0.102032   1.000000
   13        0.450748   1.000000
   14        0.556346   1.000000
   15        0.729057   1.000000
   16        2.534472   1.000000
   17        2.676762   1.000000
   18        2.923066   1.000000
   19        3.106673   1.000000
   20        3.292150   1.000000
   21        3.708291   1.000000
   22        3.718842   1.000000
   23        3.894626   1.000000
   24        4.044929   1.000000
   25        4.240586   1.000000
   26        4.482062   1.000000
   27        4.622461   1.000000
   28        4.639773   1.000000
   29        4.674484   1.000000
   30        4.719467   1.000000
   31        4.764144   1.000000
   32        4.792752   1.000000
   33        4.838799   1.000000
   34        4.996852   1.000000
   35        5.331504   1.000000
   36        5.852939   1.000000
   37        6.016017   1.000000
   38        6.352043   1.000000
   39        6.405590   1.000000
   40        7.446907   1.000000
   41        7.660661   1.000000
   42        7.836250   1.000000
   43        7.914617   1.000000
   44        8.428697   1.000000
   45        8.463163   1.000000
   46        8.720332   1.000000
   47        9.231702  -0.002032
   48        9.367402   0.000000
   49        9.410989   0.000000
   50        9.949467   0.000000
   51        9.968365   0.000000
   52        9.988341   0.000000
   53       10.099703   0.000000
   54       10.137714   0.000000
   55       10.165322   0.000000
   56       10.322756   0.000000
   57       10.340614   0.000000
   58       10.386875   0.000000
   59       10.588692   0.000000
   60       10.601589   0.000000

  0.1818182E+00  0.3510721E-15  0.3742004E-15  0.1502630E-02
    1       -5.543399   1.000000
    2       -3.444966   1.000000
    3       -2.789652   1.000000
    4       -2.491866   1.000000
    5       -2.156682   1.000000
    6       -2.093220   1.000000
    7       -2.087378   1.000000
    8       -2.072606   1.000000
    9       -0.761005   1.000000
   10       -0.749312   1.000000
   11       -0.156526   1.000000
   12        0.263773   1.000000
   13        0.522077   1.000000
   14        0.548438   1.000000
   15        0.927093   1.000000
   16        2.574698   1.000000
   17        2.665433   1.000000
   18        2.870227   1.000000
   19        3.162993   1.000000
   20        3.279445   1.000000
   21        3.354789   1.000000
   22        3.426596   1.000000
   23        3.555770   1.000000
   24        3.997316   1.000000
   25        4.178874   1.000000
   26        4.321652   1.000000
   27        4.650966   1.000000
   28        4.655362   1.000000
   29        4.694155   1.000000
   30        4.715207   1.000000
   31        4.737750   1.000000
   32        4.851984   1.000000
   33        4.938191   1.000000
   34        5.002464   1.000000
   35        5.631188   1.000000
   36        5.767688   1.000000
   37        5.811895   1.000000
   38        5.920976   1.000000
   39        6.235681   1.000000
   40        7.196513   1.000000
   41        7.786452   1.000000
   42        8.072489   1.000000
   43        8.121321   1.000000
   44        8.441020   1.000000
   45        8.632698   1.000000
   46        8.726850   1.045643
   47        9.195846  -0.011140
   48        9.451518   0.000000
   49        9.662775   0.000000
   50        9.804983   0.000000
   51        9.811495   0.000000
   52        9.945535   0.000000
   53        9.996256   0.000000
   54       10.033330   0.000000
   55       10.123894   0.000000
   56       10.358395   0.000000
   57       10.398910   0.000000
   58       10.402233   0.000000
   59       10.472208   0.000000
   60       10.513293   0.000000

  0.2727273E+00  0.3193348E-15  0.3742004E-15  0.1502630E-02
    1       -5.346579   1.000000
    2       -3.373052   1.000000
    3       -3.349494   1.000000
    4       -2.618410   1.000000
    5       -2.261352   1.000000
    6       -2.256996   1.000000
    7       -2.127735   1.000000
    8       -2.120910   1.000000
    9       -0.336319   1.000000
   10       -0.321728   1.000000
   11        0.478752   1.000000
   12        0.526319   1.000000
   13        0.526505   1.000000
   14        0.527435   1.000000
   15        1.372074   1.000000
   16        2.620198   1.000000
   17        2.648417   1.000000
   18        2.650141   1.000000
   19        2.752054   1.000000
   20        2.817488   1.000000
   21        3.287813   1.000000
   22        3.442139   1.000000
   23        3.463558   1.000000
   24        3.730726   1.000000
   25        4.162671   1.000000
   26        4.442745   1.000000
   27        4.613260   1.000000
   28        4.685452   1.000000
   29        4.690627   1.000000
   30        4.701910   1.000000
   31        4.719385   1.000000
   32        4.873502   1.000000
   33        4.975042   1.000000
   34        5.047542   1.000000
   35        5.121445   1.000000
   36        5.179162   1.000000
   37        5.538127   1.000000
   38        6.494806   1.000000
   39        6.682516   1.000000
   40        6.835465   1.000000
   41        7.670348   1.000000
   42        7.716277   1.000000
   43        7.992623   1.000000
   44        8.771230   1.000000
   45        9.002967   1.000000
   46        9.139817   0.364903
   47        9.364191  -0.003487
   48        9.476934   0.000000
   49        9.479828   0.000000
   50        9.515821   0.000000
   51        9.683340   0.000000
   52        9.911267   0.000000
   53        9.967049   0.000000
   54       10.076812   0.000000
   55       10.104154   0.000000
   56       10.144160   0.000000
   57       10.379409   0.000000
   58       10.456118   0.000000
   59       10.482606   0.000000
   60       10.504662   0.000000

  0.3636364E+00  0.3437042E-15  0.3742005E-15  0.1502630E-02
    1       -5.075652   1.000000
    2       -3.865547   1.000000
    3       -3.270602   1.000000
    4       -2.795720   1.000000
    5       -2.375529   1.000000
    6       -2.372653   1.000000
    7       -2.117637   1.000000
    8       -2.103522   1.000000
    9        0.105526   1.000000
   10        0.120644   1.000000
   11        0.442746   1.000000
   12        0.481130   1.000000
   13        0.878839   1.000000
   14        1.210483   1.000000
   15        1.925556   1.000000
   16        2.224988   1.000000
   17        2.248150   1.000000
   18        2.255391   1.000000
   19        2.626203   1.000000
   20        2.668238   1.000000
   21        3.180475   1.000000
   22        3.487050   1.000000
   23        3.501381   1.000000
   24        3.525777   1.000000
   25        4.117032   1.000000
   26        4.381540   1.000000
   27        4.521968   1.000000
   28        4.578905   1.000000
   29        4.600021   1.000000
   30        4.650776   1.000000
   31        4.722087   1.000000
   32        4.741975   1.000000
   33        4.744196   1.000000
   34        5.101635   1.000000
   35        5.148906   1.000000
   36        5.237767   1.000000
   37        5.350713   1.000000
   38        6.429164   1.000000
   39        7.028120   1.000000
   40        7.122807   1.000000
   41        7.338070   1.000000
   42        7.371094   1.000000
   43        8.260777   1.000000
   44        8.834817   1.000000
   45        9.042785   1.000000
   46        9.069183   0.689764
   47        9.069817   0.505637
   48        9.314832  -0.052591
   49        9.520906   0.000000
   50        9.598182   0.000000
   51        9.857086   0.000000
   52        9.865737   0.000000
   53        9.967942   0.000000
   54       10.071051   0.000000
   55       10.114025   0.000000
   56       10.119233   0.000000
   57       10.426765   0.000000
   58       10.513509   0.000000
   59       10.560612   0.000000
   60       10.665104   0.000000

  0.4545455E+00  0.3066061E-15  0.3742006E-15  0.1502630E-02
    1       -4.734930   1.000000
    2       -4.329588   1.000000
    3       -3.137547   1.000000
    4       -2.976405   1.000000
    5       -2.432483   1.000000
    6       -2.431468   1.000000
    7       -2.100923   1.000000
    8       -2.093579   1.000000
    9        0.428207   1.000000
   10        0.442624   1.000000
   11        0.470372   1.000000
   12        0.478765   1.000000
   13        1.303630   1.000000
   14        1.762479   1.000000
   15        1.774227   1.000000
   16        1.813942   1.000000
   17        1.959880   1.000000
   18        2.438358   1.000000
   19        2.565742   1.000000
   20        2.590224   1.000000
   21        2.824772   1.000000
   22        3.394415   1.000000
   23        3.544186   1.000000
   24        3.566790   1.000000
   25        3.804816   1.000000
   26        4.190538   1.000000
   27        4.482296   1.000000
   28        4.515714   1.000000
   29        4.639278   1.000000
   30        4.691273   1.000000
   31        4.746743   1.000000
   32        4.753236   1.000000
   33        4.755084   1.000000
   34        4.936439   1.000000
   35        5.189837   1.000000
   36        5.206226   1.000000
   37        5.658801   1.000000
   38        6.025871   1.000000
   39        7.153665   1.000000
   40        7.165735   1.000000
   41        7.437463   1.000000
   42        7.463254   1.000000
   43        8.579406   1.000000
   44        8.687901   1.000000
   45        8.705868   1.000000
   46        8.910072   1.006806
   47        8.936704   1.014617
   48        8.990471   0.937181
   49        9.691369   0.000000
   50        9.751726   0.000000
   51        9.785162   0.000000
   52        9.823348   0.000000
   53        9.999581   0.000000
   54       10.007096   0.000000
   55       10.119618   0.000000
   56       10.247208   0.000000
   57       10.426374   0.000000
   58       10.446121   0.000000
   59       10.614891   0.000000
   60       10.693255   0.000000

  0.3742064E-15  0.9090909E-01  0.3742002E-15  0.1502630E-02
    1       -5.662854   1.000000
    2       -3.487400   1.000000
    3       -2.442298   1.000000
    4       -2.200995   1.000000
    5       -2.179423   1.000000
    6       -1.978757   1.000000
    7       -1.883644   1.000000
    8       -1.875816   1.000000
    9       -1.131413   1.000000
   10       -1.125677   1.000000
   11       -0.815032   1.000000
   12        0.102033   1.000000
   13        0.450884   1.000000
   14        0.556363   1.000000
   15        0.728951   1.000000
   16        2.534475   1.000000
   17        2.676753   1.000000
   18        2.923039   1.000000
   19        3.106653   1.000000
   20        3.292138   1.000000
   21        3.708358   1.000000
   22        3.718826   1.000000
   23        3.894629   1.000000
   24        4.044934   1.000000
   25        4.240583   1.000000
   26        4.481942   1.000000
   27        4.622454   1.000000
   28        4.639910   1.000000
   29        4.674489   1.000000
   30        4.719377   1.000000
   31        4.764099   1.000000
   32        4.792770   1.000000
   33        4.838788   1.000000
   34        4.996907   1.000000
   35        5.331543   1.000000
   36        5.852946   1.000000
   37        6.016028   1.000000
   38        6.352279   1.000000
   39        6.405312   1.000000
   40        7.446997   1.000000
   41        7.660565   1.000000
   42        7.836211   1.000000
   43        7.914700   1.000000
   44        8.428695   1.000000
   45        8.463285   1.000000
   46        8.720232   1.000000
   47        9.231606  -0.002080
   48        9.367487   0.000000
   49        9.410991   0.000000
   50        9.949598   0.000000
   51        9.968397   0.000000
   52        9.988458   0.000000
   53       10.096493   0.000000
   54       10.146051   0.000000
   55       10.165340   0.000000
   56       10.322756   0.000000
   57       10.360823   0.000000
   58       10.393205   0.000000
   59       10.586959   0.000000
   60       10.599263   0.000000

  0.9090909E-01  0.9090909E-01  0.3742003E-15  0.1502630E-02
    1       -5.582888   1.000000
    2       -3.455782   1.000000
    3       -2.476370   1.000000
    4       -2.463458   1.000000
    5       -2.457222   1.000000
    6       -2.134571   1.000000
    7       -2.101906   1.000000
    8       -1.589786   1.000000
    9       -1.281760   1.000000
   10       -0.543871   1.000000
   11       -0.409716   1.000000
   12        0.211348   1.000000
   13        0.412048   1.000000
   14        0.702332   1.000000
   15        0.817392   1.000000
   16        2.538318   1.000000
   17        2.633270   1.000000
   18        2.877239   1.000000
   19        3.194585   1.000000
   20        3.254412   1.000000
   21        3.414836   1.000000
   22        3.565298   1.000000
   23        3.943180   1.000000
   24        3.977656   1.000000
   25        4.270220   1.000000
   26        4.292936   1.000000
   27        4.315475   1.000000
   28        4.589899   1.000000
   29        4.614423   1.000000
   30        4.705989   1.000000
   31        4.723128   1.000000
   32        4.953398   1.000000
   33        5.002502   1.000000
   34        5.340746   1.000000
   35        5.359603   1.000000
   36        5.815349   1.000000
   37        5.860391   1.000000
   38        5.950108   1.000000
   39        6.224947   1.000000
   40        7.275469   1.000000
   41        7.750997   1.000000
   42        8.047605   1.000000
   43        8.266387   1.000000
   44        8.448039   1.000000
   45        8.450314   1.000000
   46        8.634034   1.026078
   47        9.198183  -0.022165
   48        9.438088   0.000000
   49        9.573671   0.000000
   50        9.869417   0.000000
   51        9.891454   0.000000
   52        9.951741   0.000000
   53       10.048379   0.000000
   54       10.110781   0.000000
   55       10.158589   0.000000
   56       10.221444   0.000000
   57       10.303312   0.000000
   58       10.485577   0.000000
   59       10.518456   0.000000
   60       10.527012   0.000000

  0.1818182E+00  0.9090909E-01  0.3742004E-15  0.1502630E-02
    1       -5.424610   1.000000
    2       -3.396254   1.000000
    3       -3.047451   1.000000
    4       -2.683224   1.000000
    5       -2.514600   1.000000
    6       -2.291557   1.000000
    7       -2.011051   1.000000
    8       -1.654626   1.000000
    9       -0.978313   1.000000
   10       -0.096200   1.000000
   11        0.215426   1.000000
   12        0.257440   1.000000
   13        0.424207   1.000000
   14        0.851682   1.000000
   15        1.149422   1.000000
   16        2.572103   1.000000
   17        2.591316   1.000000
   18        2.685560   1.000000
   19        2.775922   1.000000
   20        3.307854   1.000000
   21        3.339141   1.000000
   22        3.461709   1.000000
   23        3.569000   1.000000
   24        3.929321   1.000000
   25        4.123943   1.000000
   26        4.250313   1.000000
   27        4.443294   1.000000
   28        4.588943   1.000000
   29        4.610215   1.000000
   30        4.623399   1.000000
   31        4.738121   1.000000
   32        5.019370   1.000000
   33        5.076725   1.000000
   34        5.134978   1.000000
   35        5.383798   1.000000
   36        5.394431   1.000000
   37        5.612680   1.000000
   38        5.936387   1.000000
   39        6.679073   1.000000
   40        6.991594   1.000000
   41        7.592240   1.000000
   42        7.908420   1.000000
   43        8.204277   1.000000
   44        8.618821   1.000000
   45        8.791294   1.000000
   46        9.125543   0.548733
   47        9.144784   0.000561
   48        9.490633   0.000000
   49        9.654514   0.000000
   50        9.658465   0.000000
   51        9.845303   0.000000
   52        9.882796   0.000000
   53        9.924024   0.000000
   54        9.945904   0.000000
   55       10.136901   0.000000
   56       10.198668   0.000000
   57       10.350021   0.000000
   58       10.381900   0.000000
   59       10.505182   0.000000
   60       10.750321   0.000000

  0.2727273E+00  0.9090909E-01  0.3742005E-15  0.1502630E-02
    1       -5.190663   1.000000
    2       -3.586641   1.000000
    3       -3.308158   1.000000
    4       -2.836333   1.000000
    5       -2.678842   1.000000
    6       -2.341972   1.000000
    7       -1.921764   1.000000
    8       -1.781084   1.000000
    9       -0.522547   1.000000
   10        0.117128   1.000000
   11        0.329392   1.000000
   12        0.731923   1.000000
   13        0.888369   1.000000
   14        0.892963   1.000000
   15        1.682811   1.000000
   16        2.094757   1.000000
   17        2.492034   1.000000
   18        2.553849   1.000000
   19        2.624279   1.000000
   20        2.922690   1.000000
   21        3.199076   1.000000
   22        3.439966   1.000000
   23        3.464986   1.000000
   24        3.733182   1.000000
   25        4.325116   1.000000
   26        4.336283   1.000000
   27        4.410793   1.000000
   28        4.477256   1.000000
   29        4.590761   1.000000
   30        4.608516   1.000000
   31        4.639669   1.000000
   32        4.737476   1.000000
   33        4.839357   1.000000
   34        5.147706   1.000000
   35        5.209959   1.000000
   36        5.322352   1.000000
   37        5.439561   1.000000
   38        6.471231   1.000000
   39        6.633129   1.000000
   40        7.158974   1.000000
   41        7.173052   1.000000
   42        7.874653   1.000000
   43        8.140820   1.000000
   44        8.689237   1.000000
   45        9.069257   1.000000
   46        9.233966  -0.036343
   47        9.299536  -0.049693
   48        9.326743   0.000000
   49        9.533141   0.000000
   50        9.564560   0.000000
   51        9.718141   0.000000
   52        9.834575   0.000000
   53        9.877064   0.000000
   54       10.127005   0.000000
   55       10.159731   0.000000
   56       10.176565   0.000000
   57       10.229748   0.000000
   58       10.380119   0.000000
   59       10.455486   0.000000
   60       10.492586   0.000000

  0.3636364E+00  0.9090909E-01  0.3742005E-15  0.1502630E-02
    1       -4.884826   1.000000
    2       -4.077421   1.000000
    3       -3.191267   1.000000
    4       -2.928342   1.000000
    5       -2.876872   1.000000
    6       -2.338822   1.000000
    7       -1.863573   1.000000
    8       -1.855287   1.000000
    9       -0.060778   1.000000
   10        0.021856   1.000000
   11        0.717530   1.000000
   12        0.902787   1.000000
   13        1.120632   1.000000
   14        1.549421   1.000000
   15        1.569005   1.000000
   16        2.049942   1.000000
   17        2.290338   1.000000
   18        2.458319   1.000000
   19        2.517340   1.000000
   20        2.687421   1.000000
   21        2.867758   1.000000
   22        3.172285   1.000000
   23        3.687705   1.000000
   24        3.691089   1.000000
   25        3.858344   1.000000
   26        4.346786   1.000000
   27        4.371946   1.000000
   28        4.435162   1.000000
   29        4.566165   1.000000
   30        4.570560   1.000000
   31        4.648519   1.000000
   32        4.693737   1.000000
   33        4.776135   1.000000
   34        5.022802   1.000000
   35        5.330329   1.000000
   36        5.405500   1.000000
   37        5.451789   1.000000
   38        6.251808   1.000000
   39        6.868591   1.000000
   40        6.909700   1.000000
   41        7.620147   1.000000
   42        7.630194   1.000000
   43        8.435573   1.000000
   44        8.782224   1.000000
   45        8.865913   1.000000
   46        8.906088   1.053305
   47        8.977639   0.927100
   48        9.157379   0.244412
   49        9.642529   0.000000
   50        9.654046   0.000000
   51        9.778537   0.000000
   52        9.817526   0.000000
   53        9.875435   0.000000
   54       10.067531   0.000000
   55       10.100140   0.000000
   56       10.189108   0.000000
   57       10.226102   0.000000
   58       10.304889   0.000000
   59       10.513065   0.000000
   60       10.552734   0.000000

  0.4545455E+00  0.9090909E-01  0.3742005E-15  0.1502630E-02
    1       -4.512610   1.000000
    2       -4.511771   1.000000
    3       -3.058375   1.000000
    4       -3.047095   1.000000
    5       -2.958014   1.000000
    6       -2.326420   1.000000
    7       -1.892224   1.000000
    8       -1.832411   1.000000
    9       -0.002571   1.000000
   10        0.205990   1.000000
   11        0.896833   1.000000
   12        0.905421   1.000000
   13        1.251026   1.000000
   14        1.569412   1.000000
   15        1.570567   1.000000
   16        2.204626   1.000000
   17        2.247122   1.000000
   18        2.268491   1.000000
   19        2.445817   1.000000
   20        2.687132   1.000000
   21        3.012537   1.000000
   22        3.040637   1.000000
   23        3.176870   1.000000
   24        3.855875   1.000000
   25        3.917204   1.000000
   26        3.989538   1.000000
   27        4.380172   1.000000
   28        4.516611   1.000000
   29        4.522843   1.000000
   30        4.615550   1.000000
   31        4.653938   1.000000
   32        4.726269   1.000000
   33        4.845555   1.000000
   34        4.897016   1.000000
   35        5.402691   1.000000
   36        5.409512   1.000000
   37        5.749558   1.000000
   38        5.885664   1.000000
   39        6.753797   1.000000
   40        7.127847   1.000000
   41        7.512941   1.000000
   42        7.921245   1.000000
   43        8.607920   1.000000
   44        8.716220   1.000000
   45        8.779260   1.000000
   46        8.789817   1.000000
   47        8.877260   1.000000
   48        8.884150   1.142440
   49        9.665670   0.000000
   50        9.684883   0.000000
   51        9.741262   0.000000
   52        9.747216   0.000000
   53       10.046425   0.000000
   54       10.113217   0.000000
   55       10.148575   0.000000
   56       10.191217   0.000000
   57       10.225440   0.000000
   58       10.253974   0.000000
   59       10.303722   0.000000
   60       10.959819   0.000000

 -0.4545455E+00  0.9090909E-01  0.3741996E-15  0.1502630E-02
    1       -4.885886   1.000000
    2       -4.077081   1.000000
    3       -3.209499   1.000000
    4       -2.926649   1.000000
    5       -2.881141   1.000000
    6       -2.315102   1.000000
    7       -1.866828   1.000000
    8       -1.854066   1.000000
    9       -0.046098   1.000000
   10        0.050191   1.000000
   11        0.702866   1.000000
   12        0.887778   1.000000
   13        1.118075   1.000000
   14        1.416892   1.000000
   15        1.710152   1.000000
   16        2.046597   1.000000
   17        2.120755   1.000000
   18        2.450414   1.000000
   19        2.699081   1.000000
   20        2.735638   1.000000
   21        2.861865   1.000000
   22        3.177495   1.000000
   23        3.557760   1.000000
   24        3.713974   1.000000
   25        3.742001   1.000000
   26        4.371814   1.000000
   27        4.429785   1.000000
   28        4.459399   1.000000
   29        4.490102   1.000000
   30        4.546182   1.000000
   31        4.587078   1.000000
   32        4.645188   1.000000
   33        4.913798   1.000000
   34        5.131152   1.000000
   35        5.289455   1.000000
   36        5.432035   1.000000
   37        5.558826   1.000000
   38        6.148910   1.000000
   39        6.872563   1.000000
   40        7.008934   1.000000
   41        7.584063   1.000000
   42        7.601389   1.000000
   43        8.449868   1.000000
   44        8.776130   1.000000
   45        8.885135   1.000000
   46        8.897462   1.043182
   47        8.986017   0.896596
   48        9.155605   0.240118
   49        9.615201   0.000000
   50        9.652686   0.000000
   51        9.812701   0.000000
   52        9.830390   0.000000
   53        9.882696   0.000000
   54       10.036339   0.000000
   55       10.175380   0.000000
   56       10.205839   0.000000
   57       10.273634   0.000000
   58       10.402588   0.000000
   59       10.512208   0.000000
   60       10.598079   0.000000

 -0.3636364E+00  0.9090909E-01  0.3741998E-15  0.1502630E-02
    1       -5.191804   1.000000
    2       -3.586927   1.000000
    3       -3.327737   1.000000
    4       -2.833786   1.000000
    5       -2.707262   1.000000
    6       -2.305737   1.000000
    7       -1.899137   1.000000
    8       -1.787581   1.000000
    9       -0.504655   1.000000
   10        0.159921   1.000000
   11        0.314787   1.000000
   12        0.727096   1.000000
   13        0.863488   1.000000
   14        0.868136   1.000000
   15        1.576004   1.000000
   16        2.142774   1.000000
   17        2.501236   1.000000
   18        2.649125   1.000000
   19        2.756540   1.000000
   20        2.883401   1.000000
   21        3.168140   1.000000
   22        3.277060   1.000000
   23        3.438120   1.000000
   24        3.616352   1.000000
   25        4.231446   1.000000
   26        4.323292   1.000000
   27        4.444754   1.000000
   28        4.449620   1.000000
   29        4.615637   1.000000
   30        4.625535   1.000000
   31        4.673251   1.000000
   32        4.828059   1.000000
   33        4.857238   1.000000
   34        5.138430   1.000000
   35        5.285735   1.000000
   36        5.406080   1.000000
   37        5.417639   1.000000
   38        6.572428   1.000000
   39        6.673305   1.000000
   40        7.066076   1.000000
   41        7.187795   1.000000
   42        7.815735   1.000000
   43        8.149061   1.000000
   44        8.682707   1.000000
   45        9.080171   1.000000
   46        9.266022  -0.087411
   47        9.320199  -0.048695
   48        9.332866   0.000000
   49        9.537913   0.000000
   50        9.564716   0.000000
   51        9.693466   0.000000
   52        9.788583   0.000000
   53        9.897609   0.000000
   54       10.045751   0.000000
   55       10.207968   0.000000
   56       10.227834   0.000000
   57       10.238663   0.000000
   58       10.277525   0.000000
   59       10.394678   0.000000
   60       10.560917   0.000000

 -0.2727273E+00  0.9090909E-01  0.3741999E-15  0.1502630E-02
    1       -5.425621   1.000000
    2       -3.413107   1.000000
    3       -3.048660   1.000000
    4       -2.679969   1.000000
    5       -2.554931   1.000000
    6       -2.294130   1.000000
    7       -1.929571   1.000000
    8       -1.665823   1.000000
    9       -0.957084   1.000000
   10       -0.100418   1.000000
   11        0.191899   1.000000
   12        0.293907   1.000000
   13        0.419021   1.000000
   14        0.824572   1.000000
   15        1.073989   1.000000
   16        2.641049   1.000000
   17        2.759740   1.000000
   18        2.765926   1.000000
   19        2.843871   1.000000
   20        3.091142   1.000000
   21        3.159449   1.000000
   22        3.349960   1.000000
   23        3.557262   1.000000
   24        3.937236   1.000000
   25        4.052236   1.000000
   26        4.217655   1.000000
   27        4.340042   1.000000
   28        4.645319   1.000000
   29        4.726282   1.000000
   30        4.731323   1.000000
   31        4.777136   1.000000
   32        4.983655   1.000000
   33        5.075541   1.000000
   34        5.182617   1.000000
   35        5.344670   1.000000