   72   72   85    1
  0.2168974E+02  0.1053953E-08  0.6141200E-09  0.2412750E-08  0.5000000E-15
   1.0000000000000000E-004
  CAR 
 Name                                    
    282     15    184

  0.3742002E-15  0.3742002E-15  0.1262379E-14  0.2222222E-01
    1      -14.138922   1.000000
    2      -13.010904   1.000000
    3      -12.946373   1.000000
    4      -12.882857   1.000000
    5      -11.974346   1.000000
    6      -11.806529   1.000000
    7      -11.785966   1.000000
    8      -11.757922   1.000000
    9      -11.590229   1.000000
   10      -11.425312   1.000000
   11      -11.286516   1.000000
   12      -11.223414   1.000000
   13      -11.221428   1.000000
   14      -10.895845   1.000000
   15      -10.628635   1.000000
   16      -10.326769   1.000000
   17      -10.320474   1.000000
   18      -10.318647   1.000000
   19       -9.927287   1.000000
   20       -9.830315   1.000000
   21       -9.754364   1.000000
   22       -9.702523   1.000000
   23       -9.593295   1.000000
   24       -9.411554   1.000000
   25       -9.053696   1.000000
   26       -9.030632   1.000000
   27       -8.675655   1.000000
   28       -8.619345   1.000000
   29       -8.544955   1.000000
   30       -8.379564   1.000000
   31       -8.369621   1.000000
   32       -8.012925   1.000000
   33       -7.835880   1.000000
   34       -7.445926   1.000000
   35       -7.400006   1.000000
   36       -7.272664   1.000000
   37       -7.244226   1.000000
   38       -7.118376   1.000000
   39       -7.114895   1.000000
   40       -6.963447   1.000000
   41       -6.924412   1.000000
   42       -6.807659   1.000000
   43       -6.805020   1.000000
   44       -6.701143   1.000000
   45       -6.637530   1.000000
   46       -6.636006   1.000000
   47       -6.571365   1.000000
   48       -6.367488   1.000000
   49       -6.308953   1.000000
   50       -6.278338   1.000000
   51       -6.035809   1.000000
   52       -5.975013   1.000000
   53       -5.927324   1.000000
   54       -5.821812   1.000000
   55       -5.804551   1.000000
   56       -5.747675   1.000000
   57       -5.581124   1.000000
   58       -5.578875   1.000000
   59       -5.509387   1.000000
   60       -5.385852   1.000000
   61       -5.172515   1.000000
   62       -5.170341   1.000000
   63       -4.928388   1.000000
   64       -4.913565   1.000000
   65       -4.896906   1.000000
   66       -4.852262   1.000000
   67       -4.785890   1.000000
   68       -4.785323   1.000000
   69       -4.634396   1.000000
   70       -4.576179   1.000000
   71       -4.466922   1.000000
   72       -4.415895   1.000000
   73       -4.341094   1.000000
   74       -4.332716   1.000000
   75       -4.330128   1.000000
   76       -4.274855   1.000000
   77       -4.190502   1.000000
   78       -4.152385   1.000000
   79       -4.147047   1.000000
   80       -4.130225   1.000000
   81       -4.070553   1.000000
   82       -4.045759   1.000000
   83       -3.977126   1.000000
   84       -3.950291   1.000000
   85       -3.837900   1.000000
   86       -3.805315   1.000000
   87       -3.794176   1.000000
   88       -3.772226   1.000000
   89       -3.691689   1.000000
   90       -3.656303   1.000000
   91       -3.570035   1.000000
   92       -3.403967   1.000000
   93       -3.260786   1.000000
   94       -3.220698   1.000000
   95       -3.174644   1.000000
   96       -3.033952   1.000000
   97       -2.948944   1.000000
   98       -2.923845   1.000000
   99       -2.871512   1.000000
  100       -2.764780   1.000000
  101       -2.616177   1.000000
  102       -2.581045   1.000000
  103       -2.576283   1.000000
  104       -2.574986   1.000000
  105       -2.492045   1.000000
  106       -2.352450   1.000000
  107       -2.337374   1.000000
  108       -2.319443   1.000000
  109       -2.181953   1.000000
  110       -2.148346   1.000000
  111       -2.139495   1.000000
  112       -2.056915   1.000000
  113       -2.023445   1.000000
  114       -1.948228   1.000000
  115       -1.912091   1.000000
  116       -1.906452   1.000000
  117       -1.815919   1.000000
  118       -1.812263   1.000000
  119       -1.785621   1.000000
  120       -1.660251   1.000000
  121       -1.217006   1.000000
  122       -1.197820   1.000000
  123       -1.179560   1.000000
  124       -1.045604   1.000000
  125       -0.919371   1.000000
  126       -0.889046   1.000000
  127       -0.729399   1.000000
  128       -0.654408   1.000000
  129       -0.568417   1.000000
  130       -0.510931   1.000000
  131       -0.395183   1.000000
  132       -0.373202   1.000000
  133       -0.295890   1.000000
  134       -0.198447   1.000000
  135       -0.009266   1.000964
  136        0.028205   1.004513
  137        0.124586   1.035376
  138        0.131540   1.033975
  139        0.180035   0.940196
  140        0.187573   0.907113
  141        0.204839   0.810003
  142        0.339160  -0.018261
  143        0.364451  -0.035332
  144        0.385185  -0.031625
  145        0.430818  -0.012223
  146        0.462648  -0.004305
  147        0.469442  -0.003330
  148        0.573777  -0.000017
  149        0.611420  -0.000001
  150        0.638551  -0.000000
  151        0.843475  -0.000000
  152        0.923592  -0.000000
  153        0.976371  -0.000000
  154        0.984607  -0.000000
  155        1.049540  -0.000000
  156        1.068757  -0.000000
  157        1.125822  -0.000000
  158        1.155216  -0.000000
  159        1.166163  -0.000000
  160        1.241801  -0.000000
  161        1.246445  -0.000000
  162        1.262812  -0.000000
  163        1.312427  -0.000000
  164        1.376954  -0.000000
  165        1.499065  -0.000000
  166        1.504756  -0.000000
  167        1.522955  -0.000000
  168        1.524882  -0.000000
  169        1.547080  -0.000000
  170        1.573329  -0.000000
  171        1.596127  -0.000000
  172        1.600848  -0.000000
  173        1.647711  -0.000000
  174        1.656299  -0.000000
  175        1.705656  -0.000000
  176        1.772752  -0.000000
  177        1.794812  -0.000000
  178        1.846705  -0.000000
  179        1.857564  -0.000000
  180        1.995030  -0.000000
  181        2.054011  -0.000000
  182        2.116819  -0.000000
  183        2.129519  -0.000000
  184        2.172994  -0.000000

  0.2000000E+00  0.3742002E-15  0.1262379E-14  0.4444444E-01
    1      -14.090456   1.000000
    2      -13.385159   1.000000
    3      -12.838008   1.000000
    4      -12.500014   1.000000
    5      -12.179014   1.000000
    6      -11.964135   1.000000
    7      -11.809644   1.000000
    8      -11.519250   1.000000
    9      -11.423387   1.000000
   10      -11.342419   1.000000
   11      -11.278433   1.000000
   12      -11.247485   1.000000
   13      -11.124123   1.000000
   14      -10.962179   1.000000
   15      -10.763699   1.000000
   16      -10.693256   1.000000
   17      -10.662351   1.000000
   18       -9.917901   1.000000
   19       -9.893917   1.000000
   20       -9.763608   1.000000
   21       -9.677223   1.000000
   22       -9.649401   1.000000
   23       -9.568469   1.000000
   24       -9.550270   1.000000
   25       -9.207926   1.000000
   26       -8.947576   1.000000
   27       -8.537898   1.000000
   28       -8.512747   1.000000
   29       -8.324463   1.000000
   30       -8.312345   1.000000
   31       -8.286743   1.000000
   32       -8.277947   1.000000
   33       -7.713308   1.000000
   34       -7.688595   1.000000
   35       -7.494668   1.000000
   36       -7.401426   1.000000
   37       -7.349089   1.000000
   38       -7.305029   1.000000
   39       -7.122140   1.000000
   40       -6.976780   1.000000
   41       -6.872436   1.000000
   42       -6.846984   1.000000
   43       -6.785126   1.000000
   44       -6.692791   1.000000
   45       -6.657094   1.000000
   46       -6.559427   1.000000
   47       -6.391238   1.000000
   48       -6.364499   1.000000
   49       -6.288591   1.000000
   50       -6.237676   1.000000
   51       -5.984194   1.000000
   52       -5.951230   1.000000
   53       -5.831164   1.000000
   54       -5.822109   1.000000
   55       -5.701220   1.000000
   56       -5.660873   1.000000
   57       -5.581081   1.000000
   58       -5.562433   1.000000
   59       -5.544705   1.000000
   60       -5.384690   1.000000
   61       -5.369676   1.000000
   62       -5.090293   1.000000
   63       -5.048141   1.000000
   64       -4.956161   1.000000
   65       -4.878636   1.000000
   66       -4.861313   1.000000
   67       -4.845781   1.000000
   68       -4.784918   1.000000
   69       -4.544836   1.000000
   70       -4.533794   1.000000
   71       -4.435438   1.000000
   72       -4.404678   1.000000
   73       -4.382873   1.000000
   74       -4.353729   1.000000
   75       -4.338798   1.000000
   76       -4.284518   1.000000
   77       -4.169749   1.000000
   78       -4.155472   1.000000
   79       -4.130529   1.000000
   80       -4.117300   1.000000
   81       -4.097294   1.000000
   82       -4.049855   1.000000
   83       -3.952223   1.000000
   84       -3.905166   1.000000
   85       -3.826142   1.000000
   86       -3.807939   1.000000
   87       -3.790788   1.000000
   88       -3.759381   1.000000
   89       -3.712947   1.000000
   90       -3.682301   1.000000
   91       -3.613012   1.000000
   92       -3.373691   1.000000
   93       -3.343923   1.000000
   94       -3.305048   1.000000
   95       -3.133034   1.000000
   96       -3.126524   1.000000
   97       -3.022520   1.000000
   98       -2.953607   1.000000
   99       -2.933209   1.000000
  100       -2.875562   1.000000
  101       -2.572998   1.000000
  102       -2.499610   1.000000
  103       -2.465203   1.000000
  104       -2.461131   1.000000
  105       -2.413626   1.000000
  106       -2.403387   1.000000
  107       -2.343565   1.000000
  108       -2.235133   1.000000
  109       -2.165556   1.000000
  110       -2.164615   1.000000
  111       -2.114885   1.000000
  112       -2.031746   1.000000
  113       -1.990907   1.000000
  114       -1.919313   1.000000
  115       -1.910144   1.000000
  116       -1.868703   1.000000
  117       -1.791771   1.000000
  118       -1.728562   1.000000
  119       -1.667635   1.000000
  120       -1.579026   1.000000
  121       -1.294007   1.000000
  122       -1.244708   1.000000
  123       -1.174725   1.000000
  124       -1.083734   1.000000
  125       -1.017583   1.000000
  126       -0.961045   1.000000
  127       -0.747808   1.000000
  128       -0.735228   1.000000
  129       -0.660887   1.000000
  130       -0.637519   1.000000
  131       -0.531815   1.000000
  132       -0.447184   1.000000
  133       -0.381490   1.000000
  134       -0.272037   1.000000
  135       -0.141025   1.000000
  136       -0.052947   1.000106
  137        0.131945   1.033833
  138        0.176140   0.955055
  139        0.180361   0.938880
  140        0.248309   0.470203
  141        0.322492   0.016054
  142        0.389472  -0.029942
  143        0.411620  -0.019946
  144        0.477524  -0.002418
  145        0.486353  -0.001674
  146        0.503477  -0.000778
  147        0.506847  -0.000664
  148        0.516987  -0.000406
  149        0.566953  -0.000026
  150        0.684010  -0.000000
  151        0.904690  -0.000000
  152        0.973028  -0.000000
  153        1.003450  -0.000000
  154        1.085378  -0.000000
  155        1.085941  -0.000000
  156        1.106507  -0.000000
  157        1.117574  -0.000000
  158        1.118262  -0.000000
  159        1.229484  -0.000000
  160        1.276138  -0.000000
  161        1.295575  -0.000000
  162        1.329884  -0.000000
  163        1.379283  -0.000000
  164        1.387537  -0.000000
  165        1.437774  -0.000000
  166        1.478065  -0.000000
  167        1.521851  -0.000000
  168        1.541927  -0.000000
  169        1.555254  -0.000000
  170        1.561013  -0.000000
  171        1.611135  -0.000000
  172        1.673264  -0.000000
  173        1.695748  -0.000000
  174        1.714608  -0.000000
  175        1.725669  -0.000000
  176        1.786934  -0.000000
  177        1.796071  -0.000000
  178        1.858230  -0.000000
  179        1.859216  -0.000000
  180        1.906524  -0.000000
  181        2.007156  -0.000000
  182        2.013774  -0.000000
  183        2.078571  -0.000000
  184        2.097676  -0.000000

  0.4000000E+00  0.3742002E-15  0.1262379E-14  0.4444444E-01
    1      -13.946152   1.000000
    2      -13.709246   1.000000
    3      -12.704146   1.000000
    4      -12.483351   1.000000
    5      -11.961261   1.000000
    6      -11.933078   1.000000
    7      -11.880554   1.000000
    8      -11.432556   1.000000
    9      -11.419319   1.000000
   10      -11.374211   1.000000
   11      -11.251507   1.000000
   12      -11.130506   1.000000
   13      -11.111497   1.000000
   14      -10.991628   1.000000
   15      -10.947225   1.000000
   16      -10.836997   1.000000
   17      -10.809010   1.000000
   18      -10.250733   1.000000
   19       -9.832587   1.000000
   20       -9.787509   1.000000
   21       -9.619251   1.000000
   22       -9.566048   1.000000
   23       -9.474335   1.000000
   24       -9.399331   1.000000
   25       -9.170146   1.000000
   26       -8.959137   1.000000
   27       -8.515190   1.000000
   28       -8.387771   1.000000
   29       -8.118235   1.000000
   30       -8.071005   1.000000
   31       -8.068213   1.000000
   32       -8.067125   1.000000
   33       -7.970502   1.000000
   34       -7.906905   1.000000
   35       -7.800925   1.000000
   36       -7.778285   1.000000
   37       -7.533373   1.000000
   38       -7.412411   1.000000
   39       -7.321650   1.000000
   40       -7.030801   1.000000
   41       -6.789810   1.000000
   42       -6.737716   1.000000
   43       -6.726034   1.000000
   44       -6.653364   1.000000
   45       -6.521246   1.000000
   46       -6.394981   1.000000
   47       -6.385173   1.000000
   48       -6.257502   1.000000
   49       -6.231341   1.000000
   50       -6.177262   1.000000
   51       -6.059926   1.000000
   52       -6.000650   1.000000
   53       -5.920339   1.000000
   54       -5.835458   1.000000
   55       -5.725480   1.000000
   56       -5.554190   1.000000
   57       -5.537530   1.000000
   58       -5.535161   1.000000
   59       -5.374766   1.000000
   60       -5.284391   1.000000
   61       -5.279422   1.000000
   62       -5.121969   1.000000
   63       -5.097668   1.000000
   64       -5.026409   1.000000
   65       -4.952952   1.000000
   66       -4.893948   1.000000
   67       -4.812562   1.000000
   68       -4.702332   1.000000
   69       -4.631883   1.000000
   70       -4.615124   1.000000
   71       -4.575239   1.000000
   72       -4.450082   1.000000
   73       -4.363697   1.000000
   74       -4.332862   1.000000
   75       -4.327797   1.000000
   76       -4.306214   1.000000
   77       -4.176728   1.000000
   78       -4.153816   1.000000
   79       -4.135166   1.000000
   80       -4.083961   1.000000
   81       -4.064871   1.000000
   82       -4.017877   1.000000
   83       -3.894199   1.000000
   84       -3.885344   1.000000
   85       -3.804268   1.000000
   86       -3.794468   1.000000
   87       -3.784862   1.000000
   88       -3.760490   1.000000
   89       -3.625553   1.000000
   90       -3.625348   1.000000
   91       -3.515454   1.000000
   92       -3.475962   1.000000
   93       -3.455754   1.000000
   94       -3.382317   1.000000
   95       -3.364847   1.000000
   96       -3.252346   1.000000
   97       -3.172888   1.000000
   98       -3.067695   1.000000
   99       -2.966689   1.000000
  100       -2.707205   1.000000
  101       -2.581907   1.000000
  102       -2.575973   1.000000
  103       -2.472339   1.000000
  104       -2.467562   1.000000
  105       -2.238682   1.000000
  106       -2.232195   1.000000
  107       -2.222805   1.000000
  108       -2.191166   1.000000
  109       -2.120415   1.000000
  110       -2.048426   1.000000
  111       -2.044052   1.000000
  112       -1.990990   1.000000
  113       -1.960671   1.000000
  114       -1.941467   1.000000
  115       -1.804447   1.000000
  116       -1.777396   1.000000
  117       -1.650821   1.000000
  118       -1.558940   1.000000
  119       -1.479361   1.000000
  120       -1.450841   1.000000
  121       -1.386229   1.000000
  122       -1.346649   1.000000
  123       -1.280300   1.000000
  124       -1.243241   1.000000
  125       -1.197876   1.000000
  126       -1.031028   1.000000
  127       -1.026268   1.000000
  128       -0.896169   1.000000
  129       -0.832748   1.000000
  130       -0.823448   1.000000
  131       -0.635860   1.000000
  132       -0.574630   1.000000
  133       -0.379884   1.000000
  134       -0.348204   1.000000
  135       -0.182345   1.000000
  136        0.056013   1.011295
  137        0.085082   1.023203
  138        0.103299   1.031216
  139        0.166049   0.986745
  140        0.207557   0.792154
  141        0.286773   0.177024
  142        0.346318  -0.026645
  143        0.385857  -0.031374
  144        0.490791  -0.001382
  145        0.494824  -0.001156
  146        0.527271  -0.000240
  147        0.604237  -0.000002
  148        0.750677  -0.000000
  149        0.764805  -0.000000
  150        0.789607  -0.000000
  151        0.898201  -0.000000
  152        1.004408  -0.000000
  153        1.023804  -0.000000
  154        1.106677  -0.000000
  155        1.130909  -0.000000
  156        1.188190  -0.000000
  157        1.191324  -0.000000
  158        1.289314  -0.000000
  159        1.322680  -0.000000
  160        1.344697  -0.000000
  161        1.365673  -0.000000
  162        1.403598  -0.000000
  163        1.420785  -0.000000
  164        1.435480  -0.000000
  165        1.450913  -0.000000
  166        1.474233  -0.000000
  167        1.516291  -0.000000
  168        1.582233  -0.000000
  169        1.582793  -0.000000
  170        1.601201  -0.000000
  171        1.615880  -0.000000
  172        1.616811  -0.000000
  173        1.711028  -0.000000
  174        1.721018  -0.000000
  175        1.739946  -0.000000
  176        1.777121  -0.000000
  177        1.797238  -0.000000
  178        1.826949  -0.000000
  179        1.849944  -0.000000
  180        1.874400  -0.000000
  181        1.906639  -0.000000
  182        1.921618  -0.000000
  183        2.048038  -0.000000
  184        2.082726  -0.000000

  0.3742002E-15  0.1111111E+00  0.1262379E-14  0.4444444E-01
    1      -14.092131   1.000000
    2      -12.971217   1.000000
    3      -12.913512   1.000000
    4      -12.843522   1.000000
    5      -12.079148   1.000000
    6      -11.794837   1.000000
    7      -11.774818   1.000000
    8      -11.759090   1.000000
    9      -11.628446   1.000000
   10      -11.470789   1.000000
   11      -11.264379   1.000000
   12      -11.231313   1.000000
   13      -11.224178   1.000000
   14      -10.867889   1.000000
   15      -10.649178   1.000000
   16      -10.308050   1.000000
   17      -10.297260   1.000000
   18      -10.281198   1.000000
   19       -9.900836   1.000000
   20       -9.864897   1.000000
   21       -9.776261   1.000000
   22       -9.732115   1.000000
   23       -9.607436   1.000000
   24       -9.394291   1.000000
   25       -9.076150   1.000000
   26       -9.006068   1.000000
   27       -8.676442   1.000000
   28       -8.622299   1.000000
   29       -8.526185   1.000000
   30       -8.418206   1.000000
   31       -8.188071   1.000000
   32       -8.026302   1.000000
   33       -7.953474   1.000000
   34       -7.554543   1.000000
   35       -7.525500   1.000000
   36       -7.242673   1.000000
   37       -7.222358   1.000000
   38       -7.106039   1.000000
   39       -7.095719   1.000000
   40       -6.904851   1.000000
   41       -6.845437   1.000000
   42       -6.816761   1.000000
   43       -6.809644   1.000000
   44       -6.706482   1.000000
   45       -6.616006   1.000000
   46       -6.612501   1.000000
   47       -6.584002   1.000000
   48       -6.372205   1.000000
   49       -6.360109   1.000000
   50       -6.206341   1.000000
   51       -6.021148   1.000000
   52       -5.984779   1.000000
   53       -5.860847   1.000000
   54       -5.838451   1.000000
   55       -5.779571   1.000000
   56       -5.746366   1.000000
   57       -5.559513   1.000000
   58       -5.498331   1.000000
   59       -5.451730   1.000000
   60       -5.374022   1.000000
   61       -5.178154   1.000000
   62       -5.124646   1.000000
   63       -5.007120   1.000000
   64       -4.855881   1.000000
   65       -4.853579   1.000000
   66       -4.853461   1.000000
   67       -4.781617   1.000000
   68       -4.771497   1.000000
   69       -4.602849   1.000000
   70       -4.575086   1.000000
   71       -4.495691   1.000000
   72       -4.461092   1.000000
   73       -4.378051   1.000000
   74       -4.373139   1.000000
   75       -4.321758   1.000000
   76       -4.275573   1.000000
   77       -4.274998   1.000000
   78       -4.243549   1.000000
   79       -4.217032   1.000000
   80       -4.184640   1.000000
   81       -4.148234   1.000000
   82       -3.963581   1.000000
   83       -3.961368   1.000000
   84       -3.951317   1.000000
   85       -3.901067   1.000000
   86       -3.830105   1.000000
   87       -3.805207   1.000000
   88       -3.739239   1.000000
   89       -3.735345   1.000000
   90       -3.714538   1.000000
   91       -3.618798   1.000000
   92       -3.457570   1.000000
   93       -3.208522   1.000000
   94       -3.120668   1.000000
   95       -3.083753   1.000000
   96       -2.980031   1.000000
   97       -2.973769   1.000000
   98       -2.916452   1.000000
   99       -2.849798   1.000000
  100       -2.776194   1.000000
  101       -2.716353   1.000000
  102       -2.691625   1.000000
  103       -2.601427   1.000000
  104       -2.514369   1.000000
  105       -2.460871   1.000000
  106       -2.428508   1.000000
  107       -2.392317   1.000000
  108       -2.315599   1.000000
  109       -2.245339   1.000000
  110       -2.232133   1.000000
  111       -2.178403   1.000000
  112       -2.070049   1.000000
  113       -2.037446   1.000000
  114       -1.929191   1.000000
  115       -1.921315   1.000000
  116       -1.893828   1.000000
  117       -1.774284   1.000000
  118       -1.757452   1.000000
  119       -1.687900   1.000000
  120       -1.580496   1.000000
  121       -1.298299   1.000000
  122       -1.203443   1.000000
  123       -1.048545   1.000000
  124       -1.043520   1.000000
  125       -0.969281   1.000000
  126       -0.875537   1.000000
  127       -0.789144   1.000000
  128       -0.764545   1.000000
  129       -0.703003   1.000000
  130       -0.484687   1.000000
  131       -0.426581   1.000000
  132       -0.380504   1.000000
  133       -0.207065   1.000000
  134       -0.151497   1.000000
  135       -0.046379   1.000152
  136        0.042622   1.007450
  137        0.083745   1.022585
  138        0.092113   1.026445
  139        0.114473   1.034609
  140        0.126256   1.035205
  141        0.224023   0.671573
  142        0.226659   0.650644
  143        0.377547  -0.034046
  144        0.379155  -0.033613
  145        0.396462  -0.026898
  146        0.498639  -0.000973
  147        0.568650  -0.000023
  148        0.616508  -0.000001
  149        0.792141  -0.000000
  150        0.795273  -0.000000
  151        0.891100  -0.000000
  152        0.909725  -0.000000
  153        0.913288  -0.000000
  154        1.071330  -0.000000
  155        1.075881  -0.000000
  156        1.078613  -0.000000
  157        1.127652  -0.000000
  158        1.134599  -0.000000
  159        1.244148  -0.000000
  160        1.246081  -0.000000
  161        1.255712  -0.000000
  162        1.281281  -0.000000
  163        1.304688  -0.000000
  164        1.311348  -0.000000
  165        1.414869  -0.000000
  166        1.460629  -0.000000
  167        1.489860  -0.000000
  168        1.537607  -0.000000
  169        1.567531  -0.000000
  170        1.589476  -0.000000
  171        1.615046  -0.000000
  172        1.625818  -0.000000
  173        1.647237  -0.000000
  174        1.706738  -0.000000
  175        1.728433  -0.000000
  176        1.736297  -0.000000
  177        1.788367  -0.000000
  178        1.816243  -0.000000
  179        1.822291  -0.000000
  180        1.878595  -0.000000
  181        1.896121  -0.000000
  182        2.032196  -0.000000
  183        2.187098  -0.000000
  184        2.237528  -0.000000

  0.2000000E+00  0.1111111E+00  0.1262379E-14  0.8888889E-01
    1      -14.044064   1.000000
    2      -13.344832   1.000000
    3      -12.799087   1.000000
    4      -12.468643   1.000000
    5      -12.147691   1.000000
    6      -12.062957   1.000000
    7      -11.863527   1.000000
    8      -11.540207   1.000000
    9      -11.466061   1.000000
   10      -11.317682   1.000000
   11      -11.299848   1.000000
   12      -11.221620   1.000000
   13      -11.122027   1.000000
   14      -10.941291   1.000000
   15      -10.741377   1.000000
   16      -10.705572   1.000000
   17      -10.640033   1.000000
   18       -9.900370   1.000000
   19       -9.881834   1.000000
   20       -9.793238   1.000000
   21       -9.698280   1.000000
   22       -9.641416   1.000000
   23       -9.577372   1.000000
   24       -9.552059   1.000000
   25       -9.204275   1.000000
   26       -8.947834   1.000000
   27       -8.540150   1.000000
   28       -8.509836   1.000000
   29       -8.339003   1.000000
   30       -8.320259   1.000000
   31       -8.285764   1.000000
   32       -8.121324   1.000000
   33       -7.818911   1.000000
   34       -7.767357   1.000000
   35       -7.575677   1.000000
   36       -7.336174   1.000000
   37       -7.297932   1.000000
   38       -7.293389   1.000000
   39       -7.100575   1.000000
   40       -6.964090   1.000000
   41       -6.851598   1.000000
   42       -6.825860   1.000000
   43       -6.821271   1.000000
   44       -6.785941   1.000000
   45       -6.681422   1.000000
   46       -6.641406   1.000000
   47       -6.396587   1.000000
   48       -6.334911   1.000000
   49       -6.174410   1.000000
   50       -6.153021   1.000000
   51       -5.983842   1.000000
   52       -5.940691   1.000000
   53       -5.857666   1.000000
   54       -5.758057   1.000000
   55       -5.708248   1.000000
   56       -5.672461   1.000000
   57       -5.563005   1.000000
   58       -5.504870   1.000000
   59       -5.463971   1.000000
   60       -5.366305   1.000000
   61       -5.355443   1.000000
   62       -5.061438   1.000000
   63       -5.051445   1.000000
   64       -4.929909   1.000000
   65       -4.892394   1.000000
   66       -4.823815   1.000000
   67       -4.788379   1.000000
   68       -4.755840   1.000000
   69       -4.564843   1.000000
   70       -4.562431   1.000000
   71       -4.457471   1.000000
   72       -4.388087   1.000000
   73       -4.383808   1.000000
   74       -4.363130   1.000000
   75       -4.358098   1.000000
   76       -4.336940   1.000000
   77       -4.294342   1.000000
   78       -4.257224   1.000000
   79       -4.210928   1.000000
   80       -4.181174   1.000000
   81       -4.087036   1.000000
   82       -4.037427   1.000000
   83       -3.946081   1.000000
   84       -3.931669   1.000000
   85       -3.859312   1.000000
   86       -3.826863   1.000000
   87       -3.805196   1.000000
   88       -3.802051   1.000000
   89       -3.712834   1.000000
   90       -3.695132   1.000000
   91       -3.576466   1.000000
   92       -3.415354   1.000000
   93       -3.305213   1.000000
   94       -3.185190   1.000000
   95       -3.141533   1.000000
   96       -3.099482   1.000000
   97       -3.044075   1.000000
   98       -2.979295   1.000000
   99       -2.961996   1.000000
  100       -2.855749   1.000000
  101       -2.635664   1.000000
  102       -2.564041   1.000000
  103       -2.524818   1.000000
  104       -2.481423   1.000000
  105       -2.463481   1.000000
  106       -2.356041   1.000000
  107       -2.294670   1.000000
  108       -2.238637   1.000000
  109       -2.233539   1.000000
  110       -2.174520   1.000000
  111       -2.122838   1.000000
  112       -2.109918   1.000000
  113       -1.989898   1.000000
  114       -1.974548   1.000000
  115       -1.925142   1.000000
  116       -1.888481   1.000000
  117       -1.802810   1.000000
  118       -1.658024   1.000000
  119       -1.605530   1.000000
  120       -1.520281   1.000000
  121       -1.358027   1.000000
  122       -1.205405   1.000000
  123       -1.123046   1.000000
  124       -1.093656   1.000000
  125       -1.069182   1.000000
  126       -0.955728   1.000000
  127       -0.944467   1.000000
  128       -0.793777   1.000000
  129       -0.613632   1.000000
  130       -0.577313   1.000000
  131       -0.421727   1.000000
  132       -0.386578   1.000000
  133       -0.233677   1.000000
  134       -0.192384   1.000000
  135       -0.141487   1.000000
  136       -0.110703   1.000003
  137       -0.005115   1.001163
  138        0.071872   1.017296
  139        0.124705   1.035367
  140        0.262698   0.351072
  141        0.269957   0.294277
  142        0.317367   0.031438
  143        0.333789  -0.009634
  144        0.426811  -0.013665
  145        0.436331  -0.010404
  146        0.505676  -0.000702
  147        0.651187  -0.000000
  148        0.670402  -0.000000
  149        0.710287  -0.000000
  150        0.801947  -0.000000
  151        0.862534  -0.000000
  152        0.932942  -0.000000
  153        1.014274  -0.000000
  154        1.115417  -0.000000
  155        1.115418  -0.000000
  156        1.145263  -0.000000
  157        1.181527  -0.000000