 running on   72 total cores
 distrk:  each k-point on   72 cores,    1 groups
 distr:  one band on    9 cores,    8 groups
 using from now: INCAR     
 vasp.5.4.4.18Apr17-6-g9f103f2a35 (build Dec  7 2020 12:43:57) complex           
 POSCAR found type information on POSCAR  Mo V  B 
 POSCAR found :  3 types and      72 ions
 scaLAPACK will be used
 LDA part: xc-table for Pade appr. of Perdew
 POSCAR, INCAR and KPOINTS ok, starting setup
 resort distribution
 resort distribution
 resort distribution
 resort distribution
 resort distribution
 resort distribution
 resort distribution
 resort distribution
 resort distribution
 resort distribution
 resort distribution
 resort distribution
 resort distribution
 resort distribution
 resort distribution
 resort distribution
 resort distribution
 resort distribution
 resort distribution
 resort distribution
 resort distribution
 resort distribution
 resort distribution
 resort distribution
 resort distribution
 resort distribution
 resort distribution
 resort distribution
 resort distribution
 resort distribution
 resort distribution
 resort distribution
 resort distribution
 resort distribution
 resort distribution
 resort distribution
 resort distribution
 resort distribution
 resort distribution
 resort distribution
 resort distribution
 resort distribution
 resort distribution
 resort distribution
 resort distribution
 resort distribution
 resort distribution
 resort distribution
 resort distribution
 resort distribution
 resort distribution
 resort distribution
 resort distribution
 resort distribution
 resort distribution
 resort distribution
 resort distribution
 resort distribution
 resort distribution
 resort distribution
 resort distribution
 resort distribution
 resort distribution
 resort distribution
 resort distribution
 resort distribution
 resort distribution
 resort distribution
 resort distribution
 resort distribution
 resort distribution
 resort distribution
 FFT: planning ...
 WAVECAR not read
 augmentation electrons   282.07515979407566     
 soft         electrons   0.0000000000000000     
 augmentation electrons   282.07515979407566     
 soft         electrons   0.0000000000000000     
 augmentation electrons   282.07515979407566     
 soft         electrons   0.0000000000000000     
 augmentation electrons   282.07515979407566     
 soft         electrons   0.0000000000000000     
 augmentation electrons   282.07515979407566     
 soft         electrons   0.0000000000000000     
 augmentation electrons   282.07515979407566     
 soft         electrons   0.0000000000000000     
 augmentation electrons   282.07515979407566     
 soft         electrons   0.0000000000000000     
 augmentation electrons   282.07515979407566     
 soft         electrons   0.0000000000000000     
 augmentation electrons   282.07515979407566     
 soft         electrons   0.0000000000000000     
 augmentation electrons   282.07515979407566     
 soft         electrons   0.0000000000000000     
 augmentation electrons   282.07515979407566     
 soft         electrons   0.0000000000000000     
 augmentation electrons   282.07515979407566     
 soft         electrons   0.0000000000000000     
 augmentation electrons   282.07515979407566     
 soft         electrons   0.0000000000000000     
 augmentation electrons   282.07515979407566     
 soft         electrons   0.0000000000000000     
 augmentation electrons   282.07515979407566     
 soft         electrons   0.0000000000000000     
 augmentation electrons   282.07515979407566     
 soft         electrons   0.0000000000000000     
 augmentation electrons   282.07515979407566     
 soft         electrons   0.0000000000000000     
 augmentation electrons   282.07515979407566     
 soft         electrons   0.0000000000000000     
 augmentation electrons   282.07515979407566     
 soft         electrons   0.0000000000000000     
 augmentation electrons   282.07515979407566     
 soft         electrons   0.0000000000000000     
 augmentation electrons   282.07515979407566     
 soft         electrons   0.0000000000000000     
 augmentation electrons   282.07515979407566     
 soft         electrons   0.0000000000000000     
 augmentation electrons   282.07515979407566     
 soft         electrons   0.0000000000000000     
 augmentation electrons   282.07515979407566     
 soft         electrons   0.0000000000000000     
 augmentation electrons   282.07515979407566     
 soft         electrons   0.0000000000000000     
 augmentation electrons   282.07515979407566     
 soft         electrons   0.0000000000000000     
 augmentation electrons   282.07515979407566     
 soft         electrons   0.0000000000000000     
 augmentation electrons   282.07515979407566     
 soft         electrons   0.0000000000000000     
 augmentation electrons   282.07515979407566     
 soft         electrons   0.0000000000000000     
 augmentation electrons   282.07515979407566     
 soft         electrons   0.0000000000000000     
 augmentation electrons   282.07515979407566     
 soft         electrons   0.0000000000000000     
 augmentation electrons   282.07515979407566     
 soft         electrons   0.0000000000000000     
 augmentation electrons   282.07515979407566     
 soft         electrons   0.0000000000000000     
 augmentation electrons   282.07515979407566     
 soft         electrons   0.0000000000000000     
 augmentation electrons   282.07515979407566     
 soft         electrons   0.0000000000000000     
 augmentation electrons   282.07515979407566     
 soft         electrons   0.0000000000000000     
 augmentation electrons   282.07515979407566     
 soft         electrons   0.0000000000000000     
 augmentation electrons   282.07515979407566     
 soft         electrons   0.0000000000000000     
 augmentation electrons   282.07515979407566     
 soft         electrons   0.0000000000000000     
 augmentation electrons   282.07515979407566     
 soft         electrons   0.0000000000000000     
 augmentation electrons   282.07515979407566     
 soft         electrons   0.0000000000000000     
 augmentation electrons   282.07515979407566     
 soft         electrons   0.0000000000000000     
 augmentation electrons   282.07515979407566     
 soft         electrons   0.0000000000000000     
 augmentation electrons   282.07515979407566     
 soft         electrons   0.0000000000000000     
 augmentation electrons   282.07515979407566     
 soft         electrons   0.0000000000000000     
 augmentation electrons   282.07515979407566     
 soft         electrons   0.0000000000000000     
 augmentation electrons   282.07515979407566     
 soft         electrons   0.0000000000000000     
 augmentation electrons   282.07515979407566     
 soft         electrons   0.0000000000000000     
 augmentation electrons   282.07515979407566     
 soft         electrons   0.0000000000000000     
 augmentation electrons   282.07515979407566     
 soft         electrons   0.0000000000000000     
 augmentation electrons   282.07515979407566     
 soft         electrons   0.0000000000000000     
 augmentation electrons   282.07515979407566     
 soft         electrons   0.0000000000000000     
 augmentation electrons   282.07515979407566     
 soft         electrons   0.0000000000000000     
 augmentation electrons   282.07515979407566     
 soft         electrons   0.0000000000000000     
 augmentation electrons   282.07515979407566     
 soft         electrons   0.0000000000000000     
 augmentation electrons   282.07515979407566     
 soft         electrons   0.0000000000000000     
 augmentation electrons   282.07515979407566     
 soft         electrons   0.0000000000000000     
 augmentation electrons   282.07515979407566     
 soft         electrons   0.0000000000000000     
 augmentation electrons   282.07515979407566     
 soft         electrons   0.0000000000000000     
 augmentation electrons   282.07515979407566     
 soft         electrons   0.0000000000000000     
 augmentation electrons   282.07515979407566     
 soft         electrons   0.0000000000000000     
 total        electrons   282.07515979407566     
 total        electrons   282.07515979407566     
 total        electrons   282.07515979407566     
 total        electrons   282.07515979407566     
 total        electrons   282.07515979407566     
 total        electrons   282.07515979407566     
 augmentation electrons   282.07515979407566     
 soft         electrons   0.0000000000000000     
 total        electrons   282.07515979407566     
 total        electrons   282.07515979407566     
 total        electrons   282.07515979407566     
 total        electrons   282.07515979407566     
 total        electrons   282.07515979407566     
 total        electrons   282.07515979407566     
 total        electrons   282.07515979407566     
 total        electrons   282.07515979407566     
 total        electrons   282.07515979407566     
 total        electrons   282.07515979407566     
 augmentation electrons   282.07515979407566     
 soft         electrons   0.0000000000000000     
 total        electrons   282.07515979407566     
 total        electrons   282.07515979407566     
 augmentation electrons   282.07515979407566     
 soft         electrons   0.0000000000000000     
 total        electrons   282.07515979407566     
 augmentation electrons   282.07515979407566     
 soft         electrons   0.0000000000000000     
 total        electrons   282.07515979407566     
 total        electrons   282.07515979407566     
 total        electrons   282.07515979407566     
 total        electrons   282.07515979407566     
 augmentation electrons   282.07515979407566     
 soft         electrons   0.0000000000000000     
 total        electrons   282.07515979407566     
 augmentation electrons   282.07515979407566     
 soft         electrons   0.0000000000000000     
 total        electrons   282.07515979407566     
 total        electrons   282.07515979407566     
 total        electrons   282.07515979407566     
 total        electrons   282.07515979407566     
 total        electrons   282.07515979407566     
 total        electrons   282.07515979407566     
 total        electrons   282.07515979407566     
 total        electrons   282.07515979407566     
 total        electrons   282.07515979407566     
 total        electrons   282.07515979407566     
 total        electrons   282.07515979407566     
 total        electrons   282.07515979407566     
 total        electrons   282.07515979407566     
 total        electrons   282.07515979407566     
 total        electrons   282.07515979407566     
 total        electrons   282.07515979407566     
 total        electrons   282.07515979407566     
 total        electrons   282.07515979407566     
 total        electrons   282.07515979407566     
 total        electrons   282.07515979407566     
 total        electrons   282.07515979407566     
 total        electrons   282.07515979407566     
 total        electrons   282.07515979407566     
 augmentation electrons   282.07515979407566     
 soft         electrons   0.0000000000000000     
 total        electrons   282.07515979407566     
 total        electrons   282.07515979407566     
 augmentation electrons   282.07515979407566     
 soft         electrons   0.0000000000000000     
 total        electrons   282.07515979407566     
 total        electrons   282.07515979407566     
 total        electrons   282.07515979407566     
 augmentation electrons   282.07515979407566     
 soft         electrons   0.0000000000000000     
 total        electrons   282.07515979407566     
 total        electrons   282.07515979407566     
 total        electrons   282.07515979407566     
 total        electrons   282.07515979407566     
 total        electrons   282.07515979407566     
 total        electrons   282.07515979407566     
 augmentation electrons   282.07515979407566     
 soft         electrons   0.0000000000000000     
 total        electrons   282.07515979407566     
 total        electrons   282.07515979407566     
 augmentation electrons   282.07515979407566     
 soft         electrons   0.0000000000000000     
 total        electrons   282.07515979407566     
 total        electrons   282.07515979407566     
 total        electrons   282.07515979407566     
 total        electrons   282.07515979407566     
 total        electrons   282.07515979407566     
 total        electrons   282.07515979407566     
 total        electrons   282.07515979407566     
 total        electrons   282.07515979407566     
 total        electrons   282.07515979407566     
 total        electrons   282.07515979407566     
 total        electrons   282.07515979407566     
 total        electrons   282.07515979407566     
 augmentation electrons   1381.8525347193022     
 soft         electrons   0.0000000000000000     
 total        electrons   1381.8525347193022     
 augmentation electrons   1381.8525347193022     
 soft         electrons   0.0000000000000000     
 total        electrons   1381.8525347193022     
 augmentation electrons   1381.8525347193022     
 soft         electrons   0.0000000000000000     
 total        electrons   1381.8525347193022     
 augmentation electrons   1381.8525347193022     
 soft         electrons   0.0000000000000000     
 augmentation electrons   1381.8525347193022     
 soft         electrons   0.0000000000000000     
 total        electrons   1381.8525347193022     
 augmentation electrons   1381.8525347193022     
 soft         electrons   0.0000000000000000     
 total        electrons   1381.8525347193022     
 augmentation electrons   1381.8525347193022     
 soft         electrons   0.0000000000000000     
 total        electrons   1381.8525347193022     
 augmentation electrons   1381.8525347193022     
 soft         electrons   0.0000000000000000     
 total        electrons   1381.8525347193022     
 augmentation electrons   1381.8525347193022     
 soft         electrons   0.0000000000000000     
 total        electrons   1381.8525347193022     
 augmentation electrons   1381.8525347193022     
 soft         electrons   0.0000000000000000     
 total        electrons   1381.8525347193022     
 augmentation electrons   1381.8525347193022     
 soft         electrons   0.0000000000000000     
 total        electrons   1381.8525347193022     
 augmentation electrons   1381.8525347193022     
 soft         electrons   0.0000000000000000     
 total        electrons   1381.8525347193022     
 augmentation electrons   1381.8525347193022     
 soft         electrons   0.0000000000000000     
 total        electrons   1381.8525347193022     
 augmentation electrons   1381.8525347193022     
 soft         electrons   0.0000000000000000     
 augmentation electrons   1381.8525347193022     
 soft         electrons   0.0000000000000000     
 total        electrons   1381.8525347193022     
 augmentation electrons   1381.8525347193022     
 soft         electrons   0.0000000000000000     
 total        electrons   1381.8525347193022     
 augmentation electrons   1381.8525347193022     
 soft         electrons   0.0000000000000000     
 total        electrons   1381.8525347193022     
 augmentation electrons   1381.8525347193022     
 soft         electrons   0.0000000000000000     
 total        electrons   1381.8525347193022     
 augmentation electrons   1381.8525347193022     
 soft         electrons   0.0000000000000000     
 total        electrons   1381.8525347193022     
 augmentation electrons   1381.8525347193022     
 soft         electrons   0.0000000000000000     
 augmentation electrons   1381.8525347193022     
 soft         electrons   0.0000000000000000     
 total        electrons   1381.8525347193022     
 augmentation electrons   1381.8525347193022     
 soft         electrons   0.0000000000000000     
 total        electrons   1381.8525347193022     
 augmentation electrons   1381.8525347193022     
 soft         electrons   0.0000000000000000     
 total        electrons   1381.8525347193022     
 augmentation electrons   1381.8525347193022     
 soft         electrons   0.0000000000000000     
 total        electrons   1381.8525347193022     
 augmentation electrons   1381.8525347193022     
 soft         electrons   0.0000000000000000     
 total        electrons   1381.8525347193022     
 augmentation electrons   1381.8525347193022     
 soft         electrons   0.0000000000000000     
 total        electrons   1381.8525347193022     
 augmentation electrons   1381.8525347193022     
 soft         electrons   0.0000000000000000     
 total        electrons   1381.8525347193022     
 augmentation electrons   1381.8525347193022     
 soft         electrons   0.0000000000000000     
 augmentation electrons   1381.8525347193022     
 soft         electrons   0.0000000000000000     
 total        electrons   1381.8525347193022     
 augmentation electrons   1381.8525347193022     
 soft         electrons   0.0000000000000000     
 augmentation electrons   1381.8525347193022     
 soft         electrons   0.0000000000000000     
 total        electrons   1381.8525347193022     
 augmentation electrons   1381.8525347193022     
 soft         electrons   0.0000000000000000     
 augmentation electrons   1381.8525347193022     
 soft         electrons   0.0000000000000000     
 total        electrons   1381.8525347193022     
 augmentation electrons   1381.8525347193022     
 soft         electrons   0.0000000000000000     
 total        electrons   1381.8525347193022     
 augmentation electrons   1381.8525347193022     
 soft         electrons   0.0000000000000000     
 total        electrons   1381.8525347193022     
 augmentation electrons   1381.8525347193022     
 soft         electrons   0.0000000000000000     
 total        electrons   1381.8525347193022     
 augmentation electrons   1381.8525347193022     
 soft         electrons   0.0000000000000000     
 total        electrons   1381.8525347193022     
 augmentation electrons   1381.8525347193022     
 soft         electrons   0.0000000000000000     
 total        electrons   1381.8525347193022     
 augmentation electrons   1381.8525347193022     
 soft         electrons   0.0000000000000000     
 total        electrons   1381.8525347193022     
 augmentation electrons   1381.8525347193022     
 soft         electrons   0.0000000000000000     
 total        electrons   1381.8525347193022     
 augmentation electrons   1381.8525347193022     
 soft         electrons   0.0000000000000000     
 total        electrons   1381.8525347193022     
 augmentation electrons   1381.8525347193022     
 soft         electrons   0.0000000000000000     
 total        electrons   1381.8525347193022     
 augmentation electrons   1381.8525347193022     
 soft         electrons   0.0000000000000000     
 total        electrons   1381.8525347193022     
 augmentation electrons   1381.8525347193022     
 soft         electrons   0.0000000000000000     
 total        electrons   1381.8525347193022     
 augmentation electrons   1381.8525347193022     
 soft         electrons   0.0000000000000000     
 total        electrons   1381.8525347193022     
 augmentation electrons   1381.8525347193022     
 soft         electrons   0.0000000000000000     
 total        electrons   1381.8525347193022     
 augmentation electrons   1381.8525347193022     
 soft         electrons   0.0000000000000000     
 augmentation electrons   1381.8525347193022     
 soft         electrons   0.0000000000000000     
 total        electrons   1381.8525347193022     
 augmentation electrons   1381.8525347193022     
 soft         electrons   0.0000000000000000     
 total        electrons   1381.8525347193022     
 augmentation electrons   1381.8525347193022     
 soft         electrons   0.0000000000000000     
 total        electrons   1381.8525347193022     
 augmentation electrons   1381.8525347193022     
 soft         electrons   0.0000000000000000     
 total        electrons   1381.8525347193022     
 augmentation electrons   1381.8525347193022     
 soft         electrons   0.0000000000000000     
 total        electrons   1381.8525347193022     
 augmentation electrons   1381.8525347193022     
 soft         electrons   0.0000000000000000     
 total        electrons   1381.8525347193022     
 augmentation electrons   1381.8525347193022     
 soft         electrons   0.0000000000000000     
 total        electrons   1381.8525347193022     
 augmentation electrons   1381.8525347193022     
 soft         electrons   0.0000000000000000     
 augmentation electrons   1381.8525347193022     
 soft         electrons   0.0000000000000000     
 total        electrons   1381.8525347193022     
 augmentation electrons   1381.8525347193022     
 soft         electrons   0.0000000000000000     
 total        electrons   1381.8525347193022     
 augmentation electrons   1381.8525347193022     
 soft         electrons   0.0000000000000000     
 total        electrons   1381.8525347193022     
 augmentation electrons   1381.8525347193022     
 soft         electrons   0.0000000000000000     
 total        electrons   1381.8525347193022     
 augmentation electrons   1381.8525347193022     
 soft         electrons   0.0000000000000000     
 total        electrons   1381.8525347193022     
 augmentation electrons   1381.8525347193022     
 soft         electrons   0.0000000000000000     
 total        electrons   1381.8525347193022     
 augmentation electrons   1381.8525347193022     
 soft         electrons   0.0000000000000000     
 total        electrons   1381.8525347193022     
 augmentation electrons   1381.8525347193022     
 soft         electrons   0.0000000000000000     
 total        electrons   1381.8525347193022     
 augmentation electrons   1381.8525347193022     
 soft         electrons   0.0000000000000000     
 total        electrons   1381.8525347193022     
 augmentation electrons   1381.8525347193022     
 soft         electrons   0.0000000000000000     
 total        electrons   1381.8525347193022     
 augmentation electrons   1381.8525347193022     
 soft         electrons   0.0000000000000000     
 total        electrons   1381.8525347193022     
 augmentation electrons   1381.8525347193022     
 soft         electrons   0.0000000000000000     
 augmentation electrons   1381.8525347193022     
 soft         electrons   0.0000000000000000     
 total        electrons   1381.8525347193022     
 augmentation electrons   1381.8525347193022     
 soft         electrons   0.0000000000000000     
 total        electrons   1381.8525347193022     
 augmentation electrons   1381.8525347193022     
 soft         electrons   0.0000000000000000     
 total        electrons   1381.8525347193022     
 augmentation electrons   1381.8525347193022     
 soft         electrons   0.0000000000000000     
 total        electrons   1381.8525347193022     
 augmentation electrons   1381.8525347193022     
 soft         electrons   0.0000000000000000     
 total        electrons   1381.8525347193022     
 total        electrons   1381.8525347193022     
 total        electrons   1381.8525347193022     
 total        electrons   1381.8525347193022     
 total        electrons   1381.8525347193022     
 total        electrons   1381.8525347193022     
 total        electrons   1381.8525347193022     
 total        electrons   1381.8525347193022     
 total        electrons   1381.8525347193022     
 total        electrons   1381.8525347193022     
 entering main loop
       N       E                     dE             d eps       ncg     rms          rms(c)
DAV:   1     0.246176057723E+04    0.24618E+04   -0.10276E+05  5520   0.126E+03
DAV:   2    -0.225317964551E+03   -0.26871E+04   -0.24998E+04  6456   0.312E+02
DAV:   3    -0.654328114930E+03   -0.42901E+03   -0.40756E+03  7760   0.145E+02
DAV:   4    -0.691740441952E+03   -0.37412E+02   -0.35610E+02  8984   0.462E+01
DAV:   5    -0.694386329712E+03   -0.26459E+01   -0.25371E+01  9424   0.113E+01    0.150E+02
RMM:   6    -0.635454548903E+03    0.58932E+02   -0.12349E+03  7765   0.917E+01    0.795E+01
RMM:   7    -0.701769748015E+03   -0.66315E+02   -0.39892E+02  7581   0.392E+01    0.536E+01
RMM:   8    -0.610437859963E+03    0.91332E+02   -0.10744E+02  6606   0.296E+01    0.344E+01
RMM:   9    -0.602883597143E+03    0.75543E+01   -0.50793E+01  7307   0.152E+01    0.318E+01
RMM:  10    -0.582658597367E+03    0.20225E+02   -0.17736E+01  6518   0.108E+01    0.217E+01
RMM:  11    -0.581082364164E+03    0.15762E+01   -0.62661E+00  6406   0.672E+00    0.186E+01
RMM:  12    -0.580728316446E+03    0.35405E+00   -0.35656E+00  7333   0.333E+00    0.164E+01
RMM:  13    -0.580393588387E+03    0.33473E+00   -0.16690E+00  6473   0.305E+00    0.144E+01
RMM:  14    -0.579954511454E+03    0.43908E+00   -0.66288E-01  6479   0.207E+00    0.113E+01
RMM:  15    -0.579573404605E+03    0.38111E+00   -0.22731E+00  5570   0.527E+00    0.405E+00
RMM:  16    -0.579522653635E+03    0.50751E-01   -0.12447E+00  7297   0.178E+00    0.262E+00
RMM:  17    -0.579490303834E+03    0.32350E-01   -0.41399E-01  7410   0.102E+00    0.225E+00
RMM:  18    -0.579445423505E+03    0.44880E-01   -0.69077E-02  6051   0.783E-01    0.129E+00
RMM:  19    -0.579450762040E+03   -0.53385E-02   -0.13221E-01  6945   0.791E-01    0.141E+00
RMM:  20    -0.579434418657E+03    0.16343E-01   -0.58827E-02  6109   0.682E-01    0.545E-01
RMM:  21    -0.579437173119E+03   -0.27545E-02   -0.20463E-02  5934   0.407E-01    0.578E-01
RMM:  22    -0.579435990516E+03    0.11826E-02   -0.12747E-02  5926   0.262E-01    0.214E-01
RMM:  23    -0.579436983551E+03   -0.99304E-03   -0.53777E-03  7499   0.762E-02    0.964E-02
RMM:  24    -0.579438573145E+03   -0.15896E-02   -0.17008E-03  7317   0.594E-02    0.117E-01
RMM:  25    -0.579439490889E+03   -0.91774E-03   -0.54293E-04  6578   0.500E-02    0.573E-02
RMM:  26    -0.579440022636E+03   -0.53175E-03   -0.41972E-04  5918   0.560E-02    0.132E-01
RMM:  27    -0.579440081395E+03   -0.58758E-04   -0.31039E-04  5573   0.575E-02    0.270E-02
RMM:  28    -0.579440232496E+03   -0.15110E-03   -0.33921E-04  6914   0.197E-02    0.443E-02
RMM:  29    -0.579440302368E+03   -0.69871E-04   -0.58397E-05  4838   0.843E-03    0.397E-02
RMM:  30    -0.579440417832E+03   -0.11546E-03   -0.70248E-05  5562   0.263E-02    0.242E-02
RMM:  31    -0.579440534426E+03   -0.11659E-03   -0.22372E-05  4878   0.124E-02    0.873E-03
RMM:  32    -0.579440638594E+03   -0.10417E-03   -0.25605E-05  4963   0.974E-03    0.166E-02
RMM:  33    -0.579440740657E+03   -0.10206E-03   -0.23302E-05  4758   0.161E-02    0.144E-02
RMM:  34    -0.579440794383E+03   -0.53726E-04   -0.10095E-05  4208   0.836E-03    0.647E-03
RMM:  35    -0.579440801939E+03   -0.75559E-05   -0.22848E-06  3783   0.310E-03    0.374E-03
RMM:  36    -0.579440813353E+03   -0.11413E-04   -0.17093E-06  3587   0.395E-03    0.289E-03
RMM:  37    -0.579440817598E+03   -0.42456E-05   -0.79484E-07  3402   0.230E-03    0.574E-04
RMM:  38    -0.579440818780E+03   -0.11822E-05   -0.31461E-07  2429   0.131E-03    0.100E-03
RMM:  39    -0.579440818927E+03   -0.14710E-06   -0.19396E-07  2384   0.127E-03
   1 F= -.57944082E+03 E0= -.57943847E+03  d E =-.579441E+03
 curvature:   0.00 expect dE= 0.000E+00 dE for cont linesearch  0.000E+00
 trial: gam= 0.00000 g(F)=  0.411E+01 g(S)=  0.000E+00 ort = 0.000E+00 (trialstep = 0.100E+01)
 search vector abs. value=  0.411E+01
 bond charge predicted
       N       E                     dE             d eps       ncg     rms          rms(c)
DAV:   1    -0.581250362851E+03   -0.18095E+01   -0.34882E+02  5520   0.372E+01    0.830E+00
RMM:   2    -0.582342268481E+03   -0.10919E+01   -0.94680E+00  7065   0.799E+00    0.798E+00
RMM:   3    -0.583656292608E+03   -0.13140E+01   -0.41171E+00  6124   0.610E+00    0.127E+01
RMM:   4    -0.583062385334E+03    0.59391E+00   -0.26883E+00  6849   0.398E+00    0.885E+00
RMM:   5    -0.581961811018E+03    0.11006E+01   -0.15332E+00  6137   0.377E+00    0.377E+00
RMM:   6    -0.581794625833E+03    0.16719E+00   -0.70283E-01  6560   0.228E+00    0.217E+00
RMM:   7    -0.581798681446E+03   -0.40556E-02   -0.31203E-01  6324   0.146E+00    0.195E+00
RMM:   8    -0.581759979517E+03    0.38702E-01   -0.98365E-02  6472   0.787E-01    0.900E-01
RMM:   9    -0.581761021864E+03   -0.10423E-02   -0.60559E-02  6766   0.543E-01    0.817E-01
RMM:  10    -0.581752894920E+03    0.81269E-02   -0.23074E-02  6721   0.355E-01    0.327E-01
RMM:  11    -0.581753176157E+03   -0.28124E-03   -0.12052E-02  7384   0.160E-01    0.198E-01
RMM:  12    -0.581753015305E+03    0.16085E-03   -0.18013E-03  7325   0.706E-02    0.990E-02
RMM:  13    -0.581753200798E+03   -0.18549E-03   -0.93137E-04  7305   0.478E-02    0.384E-02
RMM:  14    -0.581753272904E+03   -0.72107E-04   -0.16235E-04  7220   0.201E-02    0.185E-02
RMM:  15    -0.581753347685E+03   -0.74781E-04   -0.46889E-05  6725   0.110E-02    0.922E-03
RMM:  16    -0.581753447065E+03   -0.99380E-04   -0.15543E-05  4665   0.725E-03    0.441E-03
RMM:  17    -0.581753546179E+03   -0.99115E-04   -0.17035E-05  4463   0.557E-03    0.422E-03
RMM:  18    -0.581753613912E+03   -0.67733E-04   -0.13272E-05  4113   0.488E-03    0.325E-03
RMM:  19    -0.581753648101E+03   -0.34188E-04   -0.79951E-06  3951   0.360E-03    0.163E-03
RMM:  20    -0.581753665252E+03   -0.17151E-04   -0.44941E-06  3789   0.307E-03    0.119E-03
RMM:  21    -0.581753673101E+03   -0.78498E-05   -0.24145E-06  3598   0.249E-03    0.902E-04
RMM:  22    -0.581753675158E+03   -0.20569E-05   -0.76729E-07  3114   0.181E-03    0.437E-04
RMM:  23    -0.581753676466E+03   -0.13076E-05   -0.57399E-07  2783   0.134E-03    0.325E-04
RMM:  24    -0.581753676759E+03   -0.29333E-06   -0.18805E-07  2399   0.118E-03
   2 F= -.58175368E+03 E0= -.58175364E+03  d E =-.231286E+01
 trial-energy change:   -2.312858  1 .order   -2.166189   -4.112492   -0.219887
 step:   1.0457(harm=  1.0565)  dis= 0.11877  next Energy=  -581.758714 (dE=-0.232E+01)
 bond charge predicted
       N       E                     dE             d eps       ncg     rms          rms(c)
DAV:   1    -0.581758112753E+03   -0.44363E-02   -0.73624E-01  5936   0.170E+00    0.394E-01
RMM:   2    -0.581760999522E+03   -0.28868E-02   -0.18736E-02  6647   0.378E-01    0.491E-01
RMM:   3    -0.581761510277E+03   -0.51075E-03   -0.67213E-03  6436   0.240E-01    0.493E-01
RMM:   4    -0.581761226673E+03    0.28360E-03   -0.61697E-03  7177   0.165E-01    0.342E-01
RMM:   5    -0.581759336371E+03    0.18903E-02   -0.37370E-03  6228   0.178E-01    0.187E-01
RMM:   6    -0.581758914807E+03    0.42156E-03   -0.17139E-03  6402   0.119E-01    0.126E-01
RMM:   7    -0.581758855437E+03    0.59370E-04   -0.73377E-04  6172   0.759E-02    0.876E-02
RMM:   8    -0.581758759587E+03    0.95850E-04   -0.20459E-04  6389   0.355E-02    0.316E-02
RMM:   9    -0.581758754841E+03    0.47455E-05   -0.90656E-05  6398   0.189E-02    0.199E-02
RMM:  10    -0.581758750946E+03    0.38951E-05   -0.26813E-05  5832   0.956E-03    0.789E-03
RMM:  11    -0.581758750660E+03    0.28633E-06   -0.93587E-06  4691   0.562E-03
   3 F= -.58175875E+03 E0= -.58175865E+03  d E =-.231793E+01
 curvature:  -0.51 expect dE=-0.334E+00 dE for cont linesearch -0.290E-07
 trial: gam= 0.15988 g(F)=  0.657E+00 g(S)=  0.000E+00 ort =-0.484E-03 (trialstep = 0.101E+01)
 search vector abs. value=  0.762E+00
 bond charge predicted
       N       E                     dE             d eps       ncg     rms          rms(c)
DAV:   1    -0.582083291124E+03   -0.32454E+00   -0.35377E+01  5520   0.136E+01    0.262E+00
RMM:   2    -0.582376702264E+03   -0.29341E+00   -0.15974E+00  6536   0.377E+00    0.487E+00
RMM:   3    -0.582181325872E+03    0.19538E+00   -0.44059E-01  6349   0.218E+00    0.230E+00
RMM:   4    -0.582313605977E+03   -0.13228E+00   -0.34163E-01  6757   0.137E+00    0.340E+00
RMM:   5    -0.582122271633E+03    0.19133E+00   -0.14002E-01  6287   0.114E+00    0.827E-01
RMM:   6    -0.582131083607E+03   -0.88120E-02   -0.70379E-02  6374   0.751E-01    0.105E+00
RMM:   7    -0.582117455866E+03    0.13628E-01   -0.28543E-02  5853   0.556E-01    0.345E-01
RMM:   8    -0.582117095767E+03    0.36010E-03   -0.12345E-02  7327   0.189E-01    0.187E-01
RMM:   9    -0.582116732126E+03    0.36364E-03   -0.31642E-03  6845   0.127E-01    0.118E-01
RMM:  10    -0.582116643667E+03    0.88459E-04   -0.12790E-03  7577   0.554E-02    0.494E-02
RMM:  11    -0.582116648449E+03   -0.47817E-05   -0.25624E-04  7172   0.258E-02    0.249E-02
RMM:  12    -0.582116661835E+03   -0.13386E-04   -0.76373E-05  6990   0.136E-02    0.129E-02
RMM:  13    -0.582116677900E+03   -0.16065E-04   -0.19136E-05  5973   0.851E-03    0.792E-03
RMM:  14    -0.582116687901E+03   -0.10001E-04   -0.48003E-06  4086   0.479E-03    0.367E-03
RMM:  15    -0.582116696352E+03   -0.84510E-05   -0.14222E-06  3483   0.370E-03    0.187E-03
RMM:  16    -0.582116710006E+03   -0.13654E-04   -0.14997E-06  3471   0.265E-03    0.129E-03
RMM:  17    -0.582116716359E+03   -0.63528E-05   -0.63333E-07  3399   0.256E-03    0.754E-04
RMM:  18    -0.582116721470E+03   -0.51107E-05   -0.45839E-07  3193   0.141E-03    0.531E-04
RMM:  19    -0.582116728124E+03   -0.66543E-05   -0.54967E-07  3219   0.144E-03    0.452E-04
RMM:  20    -0.582116733658E+03   -0.55344E-05   -0.62487E-07  2928   0.129E-03    0.314E-04
RMM:  21    -0.582116735138E+03   -0.14792E-05   -0.25042E-07  2203   0.114E-03    0.184E-04
RMM:  22    -0.582116736185E+03   -0.10474E-05   -0.22511E-07  2051   0.872E-04    0.225E-04
RMM:  23    -0.582116736517E+03   -0.33233E-06   -0.12692E-07  1967   0.906E-04
   4 F= -.58211674E+03 E0= -.58211704E+03  d E =-.357986E+00
 trial-energy change:   -0.357986  1 .order   -0.363507   -0.662952   -0.064062
 step:   1.1242(harm=  1.1171)  dis= 0.05031  next Energy=  -582.120380 (dE=-0.362E+00)
 bond charge predicted
       N       E                     dE             d eps       ncg     rms          rms(c)
DAV:   1    -0.582120009929E+03   -0.32737E-02   -0.45714E-01  5776   0.153E+00    0.298E-01
RMM:   2    -0.582124038591E+03   -0.40287E-02   -0.20838E-02  6479   0.431E-01    0.574E-01
RMM:   3    -0.582121284814E+03    0.27538E-02   -0.57133E-03  6404   0.245E-01    0.273E-01
RMM:   4    -0.582122424995E+03   -0.11402E-02   -0.44211E-03  6723   0.154E-01    0.348E-01
RMM:   5    -0.582120454024E+03    0.19710E-02   -0.16776E-03  6319   0.123E-01    0.948E-02
RMM:   6    -0.582120584166E+03   -0.13014E-03   -0.95003E-04  6145   0.902E-02    0.129E-01
RMM:   7    -0.582120380721E+03    0.20345E-03   -0.36695E-04  5912   0.644E-02    0.370E-02
RMM:   8    -0.582120374692E+03    0.60291E-05   -0.14210E-04  7074   0.200E-02    0.177E-02
RMM:   9    -0.582120373108E+03    0.15836E-05   -0.34842E-05  6033   0.137E-02    0.139E-02
RMM:  10    -0.582120371669E+03    0.14394E-05   -0.13480E-05  5476   0.766E-03    0.545E-03
RMM:  11    -0.582120372117E+03   -0.44825E-06   -0.40172E-06  3939   0.464E-03
   5 F= -.58212037E+03 E0= -.58212080E+03  d E =-.361621E+00
 curvature:  -0.65 expect dE=-0.892E-01 dE for cont linesearch -0.133E-06
 trial: gam= 0.19170 g(F)=  0.138E+00 g(S)=  0.000E+00 ort =-0.397E-03 (trialstep = 0.103E+01)
 search vector abs. value=  0.166E+00
 bond charge predicted
       N       E                     dE             d eps       ncg     rms          rms(c)
DAV:   1    -0.582215538049E+03   -0.95166E-01   -0.10332E+01  5536   0.654E+00    0.142E+00
RMM:   2    -0.582247030434E+03   -0.31492E-01   -0.25626E-01  5897   0.175E+00    0.173E+00
RMM:   3    -0.582269111492E+03   -0.22081E-01   -0.98951E-02  6543   0.996E-01    0.190E+00
RMM:   4    -0.582241511868E+03    0.27600E-01   -0.67717E-02  7275   0.500E-01    0.960E-01
RMM:   5    -0.582223450456E+03    0.18061E-01   -0.47722E-02  6323   0.609E-01    0.609E-01
RMM:   6    -0.582220620886E+03    0.28296E-02   -0.17026E-02  6536   0.349E-01    0.386E-01
RMM:   7    -0.582219887673E+03    0.73321E-03   -0.88987E-03  6412   0.258E-01    0.321E-01
RMM:   8    -0.582218610422E+03    0.12773E-02   -0.22923E-03  6378   0.133E-01    0.128E-01
RMM:   9    -0.582218482829E+03    0.12759E-03   -0.83186E-04  6555   0.713E-02    0.658E-02
RMM:  10    -0.582218495335E+03   -0.12506E-04   -0.50118E-04  7347   0.338E-02    0.413E-02
RMM:  11    -0.582218491363E+03    0.39716E-05   -0.15050E-04  7115   0.217E-02    0.239E-02
RMM:  12    -0.582218475817E+03    0.15546E-04   -0.52643E-05  6737   0.131E-02    0.954E-03
RMM:  13    -0.582218481875E+03   -0.60579E-05   -0.14421E-05  5036   0.584E-03    0.479E-03
RMM:  14    -0.582218484176E+03   -0.23008E-05   -0.13000E-06  3470   0.412E-03    0.281E-03
RMM:  15    -0.582218486708E+03   -0.25313E-05   -0.97149E-07  3400   0.243E-03    0.135E-03
RMM:  16    -0.582218489605E+03   -0.28979E-05   -0.45730E-07  3350   0.223E-03    0.551E-04
RMM:  17    -0.582218493545E+03   -0.39397E-05   -0.28627E-07  3294   0.151E-03    0.580E-04
RMM:  18    -0.582218495114E+03   -0.15691E-05   -0.16490E-07  2957   0.127E-03    0.372E-04
RMM:  19    -0.582218498082E+03   -0.29678E-05   -0.10117E-07  2147   0.842E-04    0.217E-04
RMM:  20    -0.582218501859E+03   -0.37773E-05   -0.10191E-07  2036   0.767E-04    0.317E-04
RMM:  21    -0.582218502551E+03   -0.69200E-06   -0.66328E-08  1835   0.736E-04
   6 F= -.58221850E+03 E0= -.58222000E+03  d E =-.981304E-01
 trial-energy change:   -0.098130  1 .order   -0.098613   -0.142671   -0.054555
 step:   1.7079(harm=  1.6712)  dis= 0.03177  next Energy=  -582.236226 (dE=-0.116E+00)
 bond charge predicted
       N       E                     dE             d eps       ncg     rms          rms(c)
DAV:   1    -0.582234271875E+03   -0.15770E-01   -0.44102E+00  5536   0.427E+00    0.914E-01
RMM:   2    -0.582247150882E+03   -0.12879E-01   -0.10674E-01  5893   0.113E+00    0.110E+00
RMM:   3    -0.582257077863E+03   -0.99270E-02   -0.41038E-02  6549   0.639E-01    0.123E+00
RMM:   4    -0.582244916483E+03    0.12161E-01   -0.27484E-02  7271   0.319E-01    0.610E-01
RMM:   5    -0.582237756587E+03    0.71599E-02   -0.19475E-02  6315   0.390E-01    0.395E-01
RMM:   6    -0.582236594594E+03    0.11620E-02   -0.71353E-03  6512   0.227E-01    0.254E-01
RMM:   7    -0.582236208895E+03    0.38570E-03   -0.36388E-03  6415   0.166E-01    0.202E-01
RMM:   8    -0.582235690182E+03    0.51871E-03   -0.92691E-04  6420   0.838E-02    0.768E-02
RMM:   9    -0.582235650933E+03    0.39249E-04   -0.35532E-04  6642   0.446E-02    0.422E-02
RMM:  10    -0.582235655580E+03   -0.46469E-05   -0.19077E-04  7298   0.216E-02    0.259E-02
RMM:  11    -0.582235655634E+03   -0.54586E-07   -0.59027E-05  6841   0.140E-02    0.150E-02
RMM:  12    -0.582235649248E+03    0.63863E-05   -0.20397E-05  5885   0.853E-03    0.592E-03
RMM:  13    -0.582235652501E+03   -0.32526E-05   -0.55022E-06  4222   0.444E-03    0.309E-03
RMM:  14    -0.582235653965E+03   -0.14646E-05   -0.79360E-07  3353   0.367E-03    0.180E-03
RMM:  15    -0.582235655611E+03   -0.16454E-05   -0.42870E-07  3349   0.182E-03    0.851E-04
RMM:  16    -0.582235657473E+03   -0.18624E-05   -0.20527E-07  3312   0.148E-03    0.349E-04
RMM:  17    -0.582235659765E+03   -0.22921E-05   -0.13720E-07  2789   0.100E-03    0.366E-04
RMM:  18    -0.582235660553E+03   -0.78758E-06   -0.84098E-08  2409   0.889E-04
   7 F= -.58223566E+03 E0= -.58223794E+03  d E =-.115288E+00
 curvature:  -1.00 expect dE=-0.726E-01 dE for cont linesearch -0.124E-04
 trial: gam= 0.53672 g(F)=  0.725E-01 g(S)=  0.000E+00 ort =-0.143E-02 (trialstep = 0.117E+01)
 search vector abs. value=  0.119E+00
 bond charge predicted
       N       E                     dE             d eps       ncg     rms          rms(c)
DAV:   1    -0.582283227832E+03   -0.47568E-01   -0.96843E+00  5520   0.658E+00    0.120E+00
RMM:   2    -0.582299532389E+03   -0.16305E-01   -0.16849E-01  5636   0.162E+00    0.962E-01
RMM:   3    -0.582322502770E+03   -0.22970E-01   -0.96313E-02  7267   0.750E-01    0.132E+00
RMM:   4    -0.582314614766E+03    0.78880E-02   -0.43335E-02  6531   0.570E-01    0.130E+00
RMM:   5    -0.582296911565E+03    0.17703E-01   -0.29720E-02  6181   0.523E-01    0.770E-01
RMM:   6    -0.582291256476E+03    0.56551E-02   -0.14273E-02  6456   0.333E-01    0.287E-01
RMM:   7    -0.582291176218E+03    0.80258E-04   -0.56598E-03  6299   0.210E-01    0.248E-01
RMM:   8    -0.582290012342E+03    0.11639E-02   -0.17108E-03  6275   0.121E-01    0.625E-02
RMM:   9    -0.582290085877E+03   -0.73535E-04   -0.96754E-04  7194   0.531E-02    0.646E-02
RMM:  10    -0.582290045653E+03    0.40225E-04   -0.27431E-04  6530   0.431E-02    0.366E-02
RMM:  11    -0.582290040818E+03    0.48347E-05   -0.11587E-04  6839   0.155E-02    0.137E-02
RMM:  12    -0.582290039800E+03    0.10178E-05   -0.29176E-05  5747   0.778E-03    0.640E-03
RMM:  13    -0.582290045098E+03   -0.52983E-05   -0.50475E-06  4322   0.554E-03    0.276E-03
RMM:  14    -0.582290048178E+03   -0.30797E-05   -0.11985E-06  3397   0.407E-03    0.136E-03
RMM:  15    -0.582290051165E+03   -0.29875E-05   -0.54992E-07  3355   0.211E-03    0.836E-04
RMM:  16    -0.582290056207E+03   -0.50417E-05   -0.37573E-07  3362   0.202E-03    0.612E-04
RMM:  17    -0.582290059069E+03   -0.28621E-05   -0.23306E-07  2859   0.121E-03    0.413E-04
RMM:  18    -0.582290062050E+03   -0.29808E-05   -0.18693E-07  2567   0.105E-03    0.320E-04
RMM:  19    -0.582290067182E+03   -0.51317E-05   -0.31134E-07  2623   0.105E-03    0.390E-04
RMM:  20    -0.582290068282E+03   -0.11005E-05   -0.15362E-07  2376   0.103E-03    0.191E-04
RMM:  21    -0.582290068879E+03   -0.59668E-06   -0.92566E-08  1758   0.699E-04
   8 F= -.58229007E+03 E0= -.58229191E+03  d E =-.544083E-01
 trial-energy change:   -0.054408  1 .order   -0.054660   -0.083762   -0.025558
 step:   1.7000(harm=  1.6799)  dis= 0.02290  next Energy=  -582.295877 (dE=-0.602E-01)
 bond charge predicted
       N       E                     dE             d eps       ncg     rms          rms(c)
DAV:   1    -0.582294195356E+03   -0.41271E-02   -0.20166E+00  5536   0.300E+00    0.550E-01
RMM:   2    -0.582297562928E+03   -0.33676E-02   -0.35628E-02  5614   0.750E-01    0.437E-01
RMM:   3    -0.582301575834E+03   -0.40129E-02   -0.20796E-02  7209   0.357E-01    0.570E-01
RMM:   4    -0.582299867285E+03    0.17085E-02   -0.83417E-03  6417   0.260E-01    0.531E-01
RMM:   5    -0.582297405888E+03    0.24614E-02   -0.57179E-03  6387   0.215E-01    0.382E-01
RMM:   6    -0.582295932602E+03    0.14733E-02   -0.28473E-03  6421   0.150E-01    0.132E-01
RMM:   7    -0.582295880831E+03    0.51771E-04   -0.11459E-03  6309   0.941E-02    0.106E-01
RMM:   8    -0.582295650967E+03    0.22986E-03   -0.35349E-04  6413   0.522E-02    0.252E-02
RMM:   9    -0.582295670482E+03   -0.19515E-04   -0.20630E-04  7136   0.241E-02    0.322E-02
RMM:  10    -0.582295660339E+03    0.10143E-04   -0.52173E-05  5917   0.203E-02    0.156E-02
RMM:  11    -0.582295660026E+03    0.31288E-06   -0.25835E-05  5396   0.680E-03    0.649E-03
RMM:  12    -0.582295659745E+03    0.28049E-06   -0.51346E-06  4020   0.471E-03
   9 F= -.58229566E+03 E0= -.58229731E+03  d E =-.599992E-01
 curvature:  -1.39 expect dE=-0.524E-01 dE for cont linesearch -0.402E-05
 trial: gam= 0.52023 g(F)=  0.377E-01 g(S)=  0.000E+00 ort =-0.587E-03 (trialstep = 0.127E+01)
 search vector abs. value=  0.693E-01
 bond charge predicted
       N       E                     dE             d eps       ncg     rms          rms(c)
DAV:   1    -0.582309283762E+03   -0.13624E-01   -0.76473E+00  5520   0.585E+00    0.109E+00
RMM:   2    -0.582352574526E+03   -0.43291E-01   -0.21882E-01  5792   0.184E+00    0.189E+00
RMM:   3    -0.582328684701E+03    0.23890E-01   -0.74669E-02  6510   0.898E-01    0.107E+00
RMM:   4    -0.582344330697E+03   -0.15646E-01   -0.42169E-02  6900   0.498E-01    0.134E+00
RMM:   5    -0.582316840936E+03    0.27490E-01   -0.23170E-02  6238   0.459E-01    0.426E-01
RMM:   6    -0.582316289430E+03    0.55151E-03   -0.10634E-02  6814   0.241E-01    0.269E-01
RMM:   7    -0.582315300198E+03    0.98923E-03   -0.45644E-03  6166   0.193E-01    0.208E-01
RMM:   8    -0.582314780803E+03    0.51939E-03   -0.15198E-03  6590   0.104E-01    0.523E-02
RMM:   9    -0.582314833472E+03   -0.52669E-04   -0.71255E-04  7463   0.393E-02    0.440E-02
RMM:  10    -0.582314816945E+03    0.16527E-04   -0.16318E-04  6965   0.255E-02    0.289E-02
RMM:  11    -0.582314807386E+03    0.95594E-05   -0.43528E-05  6378   0.138E-02    0.136E-02
RMM:  12    -0.582314811083E+03   -0.36975E-05   -0.29835E-05  6336   0.936E-03    0.706E-03
RMM:  13    -0.582314814189E+03   -0.31057E-05   -0.47959E-06  4019   0.576E-03    0.344E-03
RMM:  14    -0.582314816851E+03   -0.26621E-05   -0.19887E-06  3651   0.340E-03    0.195E-03
RMM:  15    -0.582314820015E+03   -0.31640E-05   -0.89274E-07  3368   0.302E-03    0.126E-03
RMM:  16    -0.582314824107E+03   -0.40918E-05   -0.57424E-07  3365   0.244E-03    0.100E-03
RMM:  17    -0.582314826589E+03   -0.24822E-05   -0.33765E-07  3243   0.165E-03    0.670E-04
RMM:  18    -0.582314830004E+03   -0.34145E-05   -0.28072E-07  2938   0.133E-03    0.519E-04
RMM:  19    -0.582314835717E+03   -0.57131E-05   -0.55651E-07  2702   0.113E-03    0.313E-04
RMM:  20    -0.582314836798E+03   -0.10816E-05   -0.18757E-07  2334   0.116E-03    0.231E-04
RMM:  21    -0.582314837897E+03   -0.10984E-05   -0.12284E-07  1949   0.783E-04    0.183E-04
RMM:  22    -0.582314838944E+03   -0.10474E-05   -0.85988E-08  1915   0.813E-04    0.882E-05
RMM:  23    -0.582314839230E+03   -0.28556E-06   -0.52112E-08  1634   0.628E-04
  10 F= -.58231484E+03 E0= -.58231623E+03  d E =-.191795E-01
 trial-energy change:   -0.019179  1 .order   -0.019475   -0.047646    0.008696
 step:   1.0719(harm=  1.0772)  dis= 0.01061  next Energy=  -582.315530 (dE=-0.199E-01)
 bond charge predicted
       N       E                     dE             d eps       ncg     rms          rms(c)
DAV:   1    -0.582315371690E+03   -0.53275E-03   -0.19217E-01  5632   0.928E-01    0.174E-01
RMM:   2    -0.582316484795E+03   -0.11131E-02   -0.55608E-03  5762   0.297E-01    0.300E-01
RMM:   3    -0.582315903402E+03    0.58139E-03   -0.18898E-03  6524   0.142E-01    0.175E-01
RMM:   4    -0.582316220360E+03   -0.31696E-03   -0.10474E-03  6875   0.791E-02    0.207E-01
RMM:   5    -0.582315580835E+03    0.63952E-03   -0.57559E-04  6242   0.719E-02    0.690E-02
RMM:   6    -0.582315571155E+03    0.96807E-05   -0.26377E-04  6749   0.398E-02    0.454E-02
RMM:   7    -0.582315546639E+03    0.24516E-04   -0.11842E-04  5996   0.326E-02    0.340E-02
RMM:   8    -0.582315533450E+03    0.13189E-04   -0.40919E-05  6105   0.175E-02    0.796E-03
RMM:   9    -0.582315535774E+03   -0.23237E-05   -0.18907E-05  4979   0.661E-03    0.660E-03
RMM:  10    -0.582315535806E+03   -0.32260E-07   -0.34043E-06  3809   0.540E-03
  11 F= -.58231554E+03 E0= -.58231698E+03  d E =-.198761E-01
 curvature:  -1.00 expect dE=-0.290E-02 dE for cont linesearch -0.481E-06
 trial: gam= 0.07364 g(F)=  0.291E-02 g(S)=  0.000E+00 ort = 0.183E-03 (trialstep = 0.123E+01)
 search vector abs. value=  0.332E-02
 bond charge predicted
       N       E                     dE             d eps       ncg     rms          rms(c)
DAV:   1    -0.582317154073E+03   -0.16183E-02   -0.32574E-01  5576   0.123E+00    0.243E-01
RMM:   2    -0.582319367340E+03   -0.22133E-02   -0.11998E-02  5917   0.391E-01    0.434E-01
RMM:   3    -0.582318250402E+03    0.11169E-02   -0.34815E-03  6754   0.186E-01    0.234E-01
RMM:   4    -0.582318575264E+03   -0.32486E-03   -0.27630E-03  7270   0.957E-02    0.217E-01
RMM:   5    -0.582317690371E+03    0.88489E-03   -0.13599E-03  6255   0.108E-01    0.128E-01
RMM:   6    -0.582317585778E+03    0.10459E-03   -0.71640E-04  6093   0.804E-02    0.840E-02
RMM:   7    -0.582317515536E+03    0.70241E-04   -0.21115E-04  6433   0.409E-02    0.355E-02
RMM:   8    -0.582317506141E+03    0.93954E-05   -0.95215E-05  6324   0.238E-02    0.267E-02
RMM:   9    -0.582317496970E+03    0.91706E-05   -0.29701E-05  5831   0.140E-02    0.644E-03
RMM:  10    -0.582317497095E+03   -0.12444E-06   -0.12596E-05  4657   0.490E-03    0.400E-03
RMM:  11    -0.582317497007E+03    0.87526E-07   -0.14832E-06  3514   0.391E-03
  12 F= -.58231750E+03 E0= -.58231899E+03  d E =-.196120E-02
 trial-energy change:   -0.001961  1 .order   -0.001970   -0.003610   -0.000329
 step:   1.3594(harm=  1.3572)  dis= 0.00222  next Energy=  -582.317514 (dE=-0.198E-02)
 bond charge predicted
       N       E                     dE             d eps       ncg     rms          rms(c)
DAV:   1    -0.582317510789E+03   -0.13694E-04   -0.34145E-03  5856   0.126E-01    0.252E-02
RMM:   2    -0.582317533448E+03   -0.22660E-04   -0.13252E-04  5901   0.411E-02    0.446E-02
RMM:   3    -0.582317522205E+03    0.11243E-04   -0.38177E-05  6083   0.196E-02    0.244E-02
RMM:   4    -0.582317525618E+03   -0.34125E-05   -0.28989E-05  6212   0.105E-02    0.224E-02
RMM:   5    -0.582317515931E+03    0.96868E-05   -0.13378E-05  5050   0.111E-02    0.133E-02
RMM:   6    -0.582317514646E+03    0.12852E-05   -0.70984E-06  4303   0.876E-03    0.882E-03
RMM:   7    -0.582317513931E+03    0.71538E-06   -0.19908E-06  3565   0.538E-03
  13 F= -.58231751E+03 E0= -.58231901E+03  d E =-.197812E-02
 curvature:  -0.77 expect dE=-0.670E-03 dE for cont linesearch -0.267E-07
 trial: gam= 0.29862 g(F)=  0.872E-03 g(S)=  0.000E+00 ort = 0.107E-04 (trialstep = 0.126E+01)
 search vector abs. value=  0.117E-02
 bond charge predicted
       N       E                     dE             d eps       ncg     rms          rms(c)
DAV:   1    -0.582317790953E+03   -0.27631E-03   -0.14504E-01  5552   0.777E-01    0.113E-01
RMM:   2    -0.582318452577E+03   -0.66162E-03   -0.38031E-03  5763   0.238E-01    0.218E-01
RMM:   3    -0.582318152529E+03    0.30005E-03   -0.10646E-03  6904   0.925E-02    0.117E-01
RMM:   4    -0.582318156081E+03   -0.35515E-05   -0.62348E-04  6847   0.539E-02    0.111E-01
RMM:   5    -0.582318001369E+03    0.15471E-03   -0.26802E-04  6233   0.468E-02    0.498E-02
RMM:   6    -0.582318004753E+03   -0.33836E-05   -0.16459E-04  6750   0.312E-02    0.453E-02
RMM:   7    -0.582317983525E+03    0.21228E-04   -0.83800E-05  5655   0.301E-02    0.247E-02
RMM:   8    -0.582317975801E+03    0.77242E-05   -0.24319E-05  5799   0.119E-02    0.444E-03
RMM:   9    -0.582317976219E+03   -0.41789E-06   -0.81332E-06  4235   0.453E-03
  14 F= -.58231798E+03 E0= -.58231953E+03  d E =-.462288E-03
 trial-energy change:   -0.000462  1 .order   -0.000464   -0.001102    0.000173
 step:   1.0877(harm=  1.0877)  dis= 0.00159  next Energy=  -582.317990 (dE=-0.476E-03)
 reached required accuracy - stopping structural energy minimisation
 augmentation electrons   31.338729737307563     
 soft         electrons   250.75346361732042     
 augmentation electrons   31.338729737307563     
 soft         electrons   250.75346361732042     
 augmentation electrons   31.338729737307563     
 soft         electrons   250.75346361732042     
 augmentation electrons   31.338729737307563     
 soft         electrons   250.75346361732042     
 augmentation electrons   31.338729737307563     
 soft         electrons   250.75346361732042     
 augmentation electrons   31.338729737307563     
 soft         electrons   250.75346361732042     
 augmentation electrons   31.338729737307563     
 soft         electrons   250.75346361732042     
 augmentation electrons   31.338729737307563     
 soft         electrons   250.75346361732042     
 augmentation electrons   31.338729737307563     
 soft         electrons   250.75346361732042     
 augmentation electrons   31.338729737307563     
 soft         electrons   250.75346361732042     
 augmentation electrons   31.338729737307563     
 soft         electrons   250.75346361732042     
 augmentation electrons   31.338729737307563     
 soft         electrons   250.75346361732042     
 augmentation electrons   31.338729737307563     
 soft         electrons   250.75346361732042     
 augmentation electrons   31.338729737307563     
 soft         electrons   250.75346361732042     
 augmentation electrons   31.338729737307563     
 soft         electrons   250.75346361732042     
 augmentation electrons   31.338729737307563     
 soft         electrons   250.75346361732042     
 augmentation electrons   31.338729737307563     
 soft         electrons   250.75346361732042     
 augmentation electrons   31.338729737307563     
 soft         electrons   250.75346361732042     
 augmentation electrons   31.338729737307563     
 soft         electrons   250.75346361732042     
 augmentation electrons   31.338729737307563     
 soft         electrons   250.75346361732042     
 augmentation electrons   31.338729737307563     
 soft         electrons   250.75346361732042     
 augmentation electrons   31.338729737307563     
 soft         electrons   250.75346361732042     
 augmentation electrons   31.338729737307563     
 soft         electrons   250.75346361732042     
 augmentation electrons   31.338729737307563     
 soft         electrons   250.75346361732042     
 augmentation electrons   31.338729737307563     
 soft         electrons   250.75346361732042     
 augmentation electrons   31.338729737307563     
 soft         electrons   250.75346361732042     
 augmentation electrons   31.338729737307563     
 soft         electrons   250.75346361732042     
 augmentation electrons   31.338729737307563     
 soft         electrons   250.75346361732042     
 augmentation electrons   31.338729737307563     
 soft         electrons   250.75346361732042     
 augmentation electrons   31.338729737307563     
 soft         electrons   250.75346361732042     
 augmentation electrons   31.338729737307563     
 soft         electrons   250.75346361732042     
 augmentation electrons   31.338729737307563     
 soft         electrons   250.75346361732042     
 augmentation electrons   31.338729737307563     
 soft         electrons   250.75346361732042     
 augmentation electrons   31.338729737307563     
 soft         electrons   250.75346361732042     
 augmentation electrons   31.338729737307563     
 soft         electrons   250.75346361732042     
 augmentation electrons   31.338729737307563     
 soft         electrons   250.75346361732042     
 augmentation electrons   31.338729737307563     
 soft         electrons   250.75346361732042     
 augmentation electrons   31.338729737307563     
 soft         electrons   250.75346361732042     
 augmentation electrons   31.338729737307563     
 soft         electrons   250.75346361732042     
 augmentation electrons   31.338729737307563     
 soft         electrons   250.75346361732042     
 augmentation electrons   31.338729737307563     
 soft         electrons   250.75346361732042     
 augmentation electrons   31.338729737307563     
 soft         electrons   250.75346361732042     
 augmentation electrons   31.338729737307563     
 soft         electrons   250.75346361732042     
 augmentation electrons   31.338729737307563     
 soft         electrons   250.75346361732042     
 augmentation electrons   31.338729737307563     
 soft         electrons   250.75346361732042     
 augmentation electrons   31.338729737307563     
 soft         electrons   250.75346361732042     
 augmentation electrons   31.338729737307563     
 soft         electrons   250.75346361732042     
 augmentation electrons   31.338729737307563     
 soft         electrons   250.75346361732042     
 augmentation electrons   31.338729737307563     
 soft         electrons   250.75346361732042     
 augmentation electrons   31.338729737307563     
 soft         electrons   250.75346361732042     
 augmentation electrons   31.338729737307563     
 soft         electrons   250.75346361732042     
 augmentation electrons   31.338729737307563     
 soft         electrons   250.75346361732042     
 augmentation electrons   31.338729737307563     
 soft         electrons   250.75346361732042     
 augmentation electrons   31.338729737307563     
 soft         electrons   250.75346361732042     
 augmentation electrons   31.338729737307563     
 soft         electrons   250.75346361732042     
 augmentation electrons   31.338729737307563     
 soft         electrons   250.75346361732042     
 augmentation electrons   31.338729737307563     
 soft         electrons   250.75346361732042     
 augmentation electrons   31.338729737307563     
 soft         electrons   250.75346361732042     
 augmentation electrons   31.338729737307563     
 soft         electrons   250.75346361732042     
 augmentation electrons   31.338729737307563     
 soft         electrons   250.75346361732042     
 augmentation electrons   31.338729737307563     
 soft         electrons   250.75346361732042     
 augmentation electrons   31.338729737307563     
 soft         electrons   250.75346361732042     
 augmentation electrons   31.338729737307563     
 soft         electrons   250.75346361732042     
 augmentation electrons   31.338729737307563     
 soft         electrons   250.75346361732042     
 augmentation electrons   31.338729737307563     
 soft         electrons   250.75346361732042     
 augmentation electrons   31.338729737307563     
 soft         electrons   250.75346361732042     
 augmentation electrons   31.338729737307563     
 soft         electrons   250.75346361732042     
 augmentation electrons   31.338729737307563     
 soft         electrons   250.75346361732042     
 augmentation electrons   31.338729737307563     
 soft         electrons   250.75346361732042     
 augmentation electrons   31.338729737307563     
 soft         electrons   250.75346361732042     
 augmentation electrons   31.338729737307563     
 soft         electrons   250.75346361732042     
 augmentation electrons   31.338729737307563     
 soft         electrons   250.75346361732042     
 total        electrons   282.09219335462797     
 total        electrons   282.09219335462797     
 total        electrons   282.09219335462797     
 total        electrons   282.09219335462797     
 total        electrons   282.09219335462797     
 total        electrons   282.09219335462797     
 total        electrons   282.09219335462797     
 total        electrons   282.09219335462797     
 total        electrons   282.09219335462797     
 total        electrons   282.09219335462797     
 total        electrons   282.09219335462797     
 total        electrons   282.09219335462797     
 total        electrons   282.09219335462797     
 total        electrons   282.09219335462797     
 total        electrons   282.09219335462797     
 total        electrons   282.09219335462797     
 total        electrons   282.09219335462797     
 total        electrons   282.09219335462797     
 total        electrons   282.09219335462797     
 total        electrons   282.09219335462797     
 total        electrons   282.09219335462797     
 total        electrons   282.09219335462797     
 total        electrons   282.09219335462797     
 total        electrons   282.09219335462797     
 total        electrons   282.09219335462797     
 total        electrons   282.09219335462797     
 total        electrons   282.09219335462797     
 total        electrons   282.09219335462797     
 total        electrons   282.09219335462797     
 total        electrons   282.09219335462797     
 total        electrons   282.09219335462797     
 total        electrons   282.09219335462797     
 total        electrons   282.09219335462797     
 total        electrons   282.09219335462797     
 total        electrons   282.09219335462797     
 total        electrons   282.09219335462797     
 total        electrons   282.09219335462797     
 total        electrons   282.09219335462797     
 total        electrons   282.09219335462797     
 total        electrons   282.09219335462797     
 total        electrons   282.09219335462797     
 total        electrons   282.09219335462797     
 total        electrons   282.09219335462797     
 total        electrons   282.09219335462797     
 total        electrons   282.09219335462797     
 total        electrons   282.09219335462797     
 total        electrons   282.09219335462797     
 total        electrons   282.09219335462797     
 total        electrons   282.09219335462797     
 total        electrons   282.09219335462797     
 total        electrons   282.09219335462797     
 total        electrons   282.09219335462797     
 total        electrons   282.09219335462797     
 total        electrons   282.09219335462797     
 total        electrons   282.09219335462797     
 total        electrons   282.09219335462797     
 total        electrons   282.09219335462797     
 total        electrons   282.09219335462797     
 total        electrons   282.09219335462797     
 total        electrons   282.09219335462797     
 total        electrons   282.09219335462797     
 total        electrons   282.09219335462797     
 total        electrons   282.09219335462797     
 total        electrons   282.09219335462797     
 total        electrons   282.09219335462797     
 total        electrons   282.09219335462797     
 total        electrons   282.09219335462797     
 total        electrons   282.09219335462797     
 total        electrons   282.09219335462797     
 total        electrons   282.09219335462797     
 total        electrons   282.09219335462797     
 total        electrons   282.09219335462797     
Note: The following floating-point exceptions are signalling: IEEE_OVERFLOW_FLAG
Note: The following floating-point exceptions are signalling: IEEE_OVERFLOW_FLAG
Note: The following floating-point exceptions are signalling: IEEE_OVERFLOW_FLAG
Note: The following floating-point exceptions are signalling: IEEE_OVERFLOW_FLAG
Note: The following floating-point exceptions are signalling: IEEE_OVERFLOW_FLAG
Note: The following floating-point exceptions are signalling: IEEE_OVERFLOW_FLAG
Note: The following floating-point exceptions are signalling: IEEE_OVERFLOW_FLAG
Note: The following floating-point exceptions are signalling: IEEE_OVERFLOW_FLAG
Note: The following floating-point exceptions are signalling: IEEE_OVERFLOW_FLAG
Note: The following floating-point exceptions are signalling: IEEE_OVERFLOW_FLAG
Note: The following floating-point exceptions are signalling: IEEE_OVERFLOW_FLAG
Note: The following floating-point exceptions are signalling: IEEE_OVERFLOW_FLAG
Note: The following floating-point exceptions are signalling: IEEE_OVERFLOW_FLAG
Note: The following floating-point exceptions are signalling: IEEE_OVERFLOW_FLAG
Note: The following floating-point exceptions are signalling: IEEE_OVERFLOW_FLAG
Note: The following floating-point exceptions are signalling: IEEE_OVERFLOW_FLAG
Note: The following floating-point exceptions are signalling: IEEE_OVERFLOW_FLAG
Note: The following floating-point exceptions are signalling: IEEE_OVERFLOW_FLAG
Note: The following floating-point exceptions are signalling: IEEE_OVERFLOW_FLAG
Note: The following floating-point exceptions are signalling: IEEE_OVERFLOW_FLAG
Note: The following floating-point exceptions are signalling: IEEE_OVERFLOW_FLAG
Note: The following floating-point exceptions are signalling: IEEE_OVERFLOW_FLAG
Note: The following floating-point exceptions are signalling: IEEE_OVERFLOW_FLAG
Note: The following floating-point exceptions are signalling: IEEE_OVERFLOW_FLAG
Note: The following floating-point exceptions are signalling: IEEE_OVERFLOW_FLAG
Note: The following floating-point exceptions are signalling: IEEE_OVERFLOW_FLAG
Note: The following floating-point exceptions are signalling: IEEE_OVERFLOW_FLAG
Note: The following floating-point exceptions are signalling: IEEE_OVERFLOW_FLAG
Note: The following floating-point exceptions are signalling: IEEE_OVERFLOW_FLAG
Note: The following floating-point exceptions are signalling: IEEE_OVERFLOW_FLAG
Note: The following floating-point exceptions are signalling: IEEE_OVERFLOW_FLAG
Note: The following floating-point exceptions are signalling: IEEE_OVERFLOW_FLAG
Note: The following floating-point exceptions are signalling: IEEE_OVERFLOW_FLAG
Note: The following floating-point exceptions are signalling: IEEE_OVERFLOW_FLAG
Note: The following floating-point exceptions are signalling: IEEE_OVERFLOW_FLAG
Note: The following floating-point exceptions are signalling: IEEE_OVERFLOW_FLAG
Note: The following floating-point exceptions are signalling: IEEE_OVERFLOW_FLAG
Note: The following floating-point exceptions are signalling: IEEE_OVERFLOW_FLAG
Note: The following floating-point exceptions are signalling: IEEE_OVERFLOW_FLAG
Note: The following floating-point exceptions are signalling: IEEE_OVERFLOW_FLAG
Note: The following floating-point exceptions are signalling: IEEE_OVERFLOW_FLAG
Note: The following floating-point exceptions are signalling: IEEE_OVERFLOW_FLAG
Note: The following floating-point exceptions are signalling: IEEE_OVERFLOW_FLAG
Note: The following floating-point exceptions are signalling: IEEE_OVERFLOW_FLAG
Note: The following floating-point exceptions are signalling: IEEE_OVERFLOW_FLAG
Note: The following floating-point exceptions are signalling: IEEE_OVERFLOW_FLAG
Note: The following floating-point exceptions are signalling: IEEE_OVERFLOW_FLAG
Note: The following floating-point exceptions are signalling: IEEE_OVERFLOW_FLAG
Note: The following floating-point exceptions are signalling: IEEE_OVERFLOW_FLAG
Note: The following floating-point exceptions are signalling: IEEE_OVERFLOW_FLAG
Note: The following floating-point exceptions are signalling: IEEE_OVERFLOW_FLAG
Note: The following floating-point exceptions are signalling: IEEE_OVERFLOW_FLAG
Note: The following floating-point exceptions are signalling: IEEE_OVERFLOW_FLAG
Note: The following floating-point exceptions are signalling: IEEE_OVERFLOW_FLAG
Note: The following floating-point exceptions are signalling: IEEE_OVERFLOW_FLAG
Note: The following floating-point exceptions are signalling: IEEE_OVERFLOW_FLAG
Note: The following floating-point exceptions are signalling: IEEE_OVERFLOW_FLAG
Note: The following floating-point exceptions are signalling: IEEE_OVERFLOW_FLAG
Note: The following floating-point exceptions are signalling: IEEE_OVERFLOW_FLAG
Note: The following floating-point exceptions are signalling: IEEE_OVERFLOW_FLAG
Note: The following floating-point exceptions are signalling: IEEE_OVERFLOW_FLAG
Note: The following floating-point exceptions are signalling: IEEE_OVERFLOW_FLAG
Note: The following floating-point exceptions are signalling: IEEE_OVERFLOW_FLAG
Note: The following floating-point exceptions are signalling: IEEE_OVERFLOW_FLAG
Note: The following floating-point exceptions are signalling: IEEE_OVERFLOW_FLAG
Note: The following floating-point exceptions are signalling: IEEE_OVERFLOW_FLAG
Note: The following floating-point exceptions are signalling: IEEE_OVERFLOW_FLAG
Note: The following floating-point exceptions are signalling: IEEE_OVERFLOW_FLAG
Note: The following floating-point exceptions are signalling: IEEE_OVERFLOW_FLAG
Note: The following floating-point exceptions are signalling: IEEE_OVERFLOW_FLAG
Note: The following floating-point exceptions are signalling: IEEE_OVERFLOW_FLAG
Note: The following floating-point exceptions are signalling: IEEE_OVERFLOW_FLAG
