    3    3   60    1
  0.8144830E+01  0.3039000E-09  0.3039000E-09  0.3055000E-09  0.5000000E-15
   1.0000000000000000E-004
  CAR 
 Name                                    
     12    216     10

  0.3742002E-15  0.3742002E-15  0.3742002E-15  0.2962963E-03
    1       -5.771981   1.000000
    2        4.074533   1.000000
    3        4.498053   1.000000
    4        4.498056   1.000000
    5        5.222380   1.000000
    6        9.024450  -0.016218
    7        9.024451  -0.016220
    8       11.154942  -0.000000
    9       11.154945  -0.000000
   10       13.749257   0.000000

  0.6666667E-01  0.3766815E-15  0.3742002E-15  0.1777778E-02
    1       -5.684618   1.000000
    2        4.144321   1.000000
    3        4.281267   1.000000
    4        4.533372   1.000000
    5        5.048824   1.000000
    6        8.984537   0.113547
    7        9.279255  -0.000005
    8       10.752372  -0.000000
    9       10.837620  -0.000000
   10       14.029298   0.000000

  0.1333333E+00  0.3754153E-15  0.3742002E-15  0.1777778E-02
    1       -5.426149   1.000000
    2        3.685070   1.000000
    3        4.339527   1.000000
    4        4.621083   1.000000
    5        4.647249   1.000000
    6        8.873984   0.908432
    7        9.895879  -0.000000
    8        9.992419  -0.000000
    9       10.310700  -0.000000
   10       14.434921   0.000000

  0.2000000E+00  0.3870416E-15  0.3742002E-15  0.1777778E-02
    1       -5.006887   1.000000
    2        2.869065   1.000000
    3        4.193703   1.000000
    4        4.533973   1.000000
    5        4.713232   1.000000
    6        8.716631   1.004807
    7        9.388399  -0.000000
    8        9.944072  -0.000000
    9       10.591859  -0.000000
   10       14.687091   0.000000

  0.2666667E+00  0.4120044E-15  0.3742002E-15  0.1777778E-02
    1       -4.442218   1.000000
    2        1.935436   1.000000
    3        3.785342   1.000000
    4        4.576496   1.000000
    5        4.759362   1.000000
    6        8.543441   1.000000
    7        9.247904  -0.000036
    8        9.838534  -0.000000
    9       11.057274  -0.000000
   10       14.818234   0.000000

  0.3333333E+00  0.4025434E-15  0.3742002E-15  0.1777778E-02
    1       -3.751315   1.000000
    2        0.948508   1.000000
    3        3.463849   1.000000
    4        4.417459   1.000000
    5        4.744618   1.000000
    6        8.384596   1.000000
    7        9.649042  -0.000000
    8        9.963123  -0.000000
    9       11.112802  -0.000000
   10       14.884401   0.000000

  0.4000000E+00  0.3732510E-15  0.3742002E-15  0.1777778E-02
    1       -2.958062   1.000000
    2       -0.049806   1.000000
    3        3.245568   1.000000
    4        4.191762   1.000000
    5        4.698197   1.000000
    6        8.264685   1.000000
    7       10.192241  -0.000000
    8       10.371600  -0.000000
    9       10.945331  -0.000000
   10       14.922819   0.000000

  0.4666667E+00  0.3915456E-15  0.3742002E-15  0.1777778E-02
    1       -2.117886   1.000000
    2       -0.995016   1.000000
    3        3.135820   1.000000
    4        4.044909   1.000000
    5        4.662024   1.000000
    6        8.200528   1.000000
    7       10.364474  -0.000000
    8       10.806111  -0.000000
    9       10.990227  -0.000000
   10       14.953840   0.000000

  0.6666667E-01  0.6666667E-01  0.3742002E-15  0.1777778E-02
    1       -5.511672   1.000000
    2        3.890822   1.000000
    3        4.256665   1.000000
    4        4.599013   1.000000
    5        4.767365   1.000000
    6        8.886932   0.838667
    7        9.733749  -0.000000
    8       10.232738  -0.000000
    9       10.404226  -0.000000
   10       14.446664   0.000000

  0.1333333E+00  0.6666667E-01  0.3742002E-15  0.3555556E-02
    1       -5.172629   1.000000
    2        3.225103   1.000000
    3        4.324883   1.000000
    4        4.360946   1.000000
    5        4.778144   1.000000
    6        8.692427   1.001863
    7        9.556033  -0.000000
    8       10.040024  -0.000000
    9       10.450505  -0.000000
   10       14.812816   0.000000

  0.2000000E+00  0.6666667E-01  0.3742002E-15  0.3555556E-02
    1       -4.680123   1.000000
    2        2.388597   1.000000
    3        3.958361   1.000000
    4        4.224701   1.000000
    5        5.044285   1.000000
    6        8.440221   1.000000
    7        9.079171  -0.028665
    8        9.965138  -0.000000
    9       11.148529  -0.000000
   10       15.136010   0.000000

  0.2666667E+00  0.6666667E-01  0.3742002E-15  0.3555556E-02
    1       -4.051088   1.000000
    2        1.457568   1.000000
    3        3.622229   1.000000
    4        3.996343   1.000000
    5        5.221214   1.000000
    6        8.173143   1.000000
    7        9.032049  -0.025714
    8       10.177468  -0.000000
    9       11.525803  -0.000000
   10       15.172613   0.000000

  0.3333333E+00  0.6666667E-01  0.3742002E-15  0.3555556E-02
    1       -3.306107   1.000000
    2        0.480584   1.000000
    3        3.377231   1.000000
    4        3.734767   1.000000
    5        5.243670   1.000000
    6        7.936574   1.000000
    7        9.406925  -0.000000
    8       10.549382  -0.000000
    9       11.529474  -0.000000
   10       15.105472   0.000000

  0.4000000E+00  0.6666667E-01  0.3742002E-15  0.3555556E-02
    1       -2.474702   1.000000
    2       -0.497148   1.000000
    3        3.230316   1.000000
    4        3.537039   1.000000
    5        5.197035   1.000000
    6        7.773314   1.000000
    7        9.927318  -0.000000
    8       10.880305  -0.000000
    9       11.413967  -0.000000
   10       15.187587   0.000000

  0.4666667E+00  0.6666667E-01  0.3742002E-15  0.1777778E-02
    1       -1.781997   1.000000
    2       -1.239936   1.000000
    3        3.181578   1.000000
    4        3.464587   1.000000
    5        5.171456   1.000000
    6        7.714962   1.000000
    7       10.183538  -0.000000
    8       11.002891  -0.000000
    9       11.359464  -0.000000
   10       15.270861   0.000000

  0.1333333E+00  0.1333333E+00  0.3742002E-15  0.1777778E-02
    1       -4.759929   1.000000
    2        2.612581   1.000000
    3        4.020498   1.000000
    4        4.035272   1.000000
    5        5.148237   1.000000
    6        8.325049   1.000000
    7        9.007513   0.020790
    8       10.036709  -0.000000
    9       11.271159  -0.000000
   10       15.111037   0.000000

  0.2000000E+00  0.1333333E+00  0.3742002E-15  0.3555556E-02
    1       -4.201665   1.000000
    2        1.874912   1.000000
    3        3.569400   1.000000
    4        3.752490   1.000000
    5        5.575827   1.000000
    6        7.869544   1.000000
    7        8.592784   1.000009
    8       10.342222  -0.000000
    9       12.077359   0.000000
   10       14.839874   0.000000

  0.2666667E+00  0.1333333E+00  0.3742002E-15  0.3555556E-02
    1       -3.515352   1.000000
    2        1.024821   1.000000
    3        3.129022   1.000000
    4        3.546784   1.000000
    5        5.872317   1.000000
    6        7.419483   1.000000
    7        8.576808   1.000003
    8       10.736897  -0.000000
    9       12.514292   0.000000
   10       15.123337   0.000000

  0.3333333E+00  0.1333333E+00  0.3742002E-15  0.3555556E-02
    1       -2.722969   1.000000
    2        0.097382   1.000000
    3        2.803291   1.000000
    4        3.421917   1.000000
    5        5.943660   1.000000
    6        7.059810   1.000000
    7        9.015372   0.000642
    8       10.934826  -0.000000
    9       12.564251   0.000000
   10       15.839981   0.000000

  0.4000000E+00  0.1333333E+00  0.3742002E-15  0.3555556E-02
    1       -1.866722   1.000000
    2       -0.836547   1.000000
    3        2.634469   1.000000
    4        3.365799   1.000000
    5        5.920286   1.000000
    6        6.859690   1.000000
    7        9.585148  -0.000000
    8       10.805516  -0.000000
    9       12.521509   0.000000
   10       15.996631   0.000000

  0.2000000E+00  0.2000000E+00  0.3742002E-15  0.1777778E-02
    1       -3.585099   1.000000
    2        1.322946   1.000000
    3        2.808419   1.000000
    4        3.628857   1.000000
    5        6.184490   1.000000
    6        7.199301   1.000000
    7        8.183107   1.000000
    8       10.802947  -0.000000
    9       13.113591   0.000000
   10       14.681968   0.000000

  0.2666667E+00  0.2000000E+00  0.3742002E-15  0.3555556E-02
    1       -2.848273   1.000000
    2        0.650910   1.000000
    3        2.172378   1.000000
    4        3.597700   1.000000
    5        6.577985   1.000000
    6        6.647787   1.000000
    7        8.156999   1.000000
    8       10.981186  -0.000000
    9       13.736265   0.000000
   10       15.052204   0.000000

  0.3333333E+00  0.2000000E+00  0.3742002E-15  0.3555556E-02
    1       -2.015523   1.000000
    2       -0.183951   1.000000
    3        1.806061   1.000000
    4        3.627740   1.000000
    5        6.126108   1.000000
    6        6.742661   1.000000
    7        8.690198   1.001695
    8       10.693948  -0.000000
    9       13.801022   0.000000
   10       15.880158   0.000000

  0.4000000E+00  0.2000000E+00  0.3742002E-15  0.1777778E-02
    1       -1.217417   1.000000
    2       -0.995769   1.000000
    3        1.693052   1.000000
    4        3.651999   1.000000
    5        5.956526   1.000000
    6        6.726841   1.000000
    7        9.152789  -0.003784
    8       10.338878  -0.000000
    9       13.788127   0.000000
   10       16.287800   0.000000

  0.2666667E+00  0.2666667E+00  0.3742002E-15  0.1777778E-02
    1       -2.069530   1.000000
    2        0.270579   1.000000
    3        1.294718   1.000000
    4        3.776746   1.000000
    5        5.812456   1.000000
    6        7.461514   1.000000
    7        7.919198   1.000000
    8       10.662291  -0.000000
    9       14.952268   0.000000
   10       14.999907   0.000000

  0.3333333E+00  0.2666667E+00  0.3742002E-15  0.3555556E-02
    1       -1.212237   1.000000
    2       -0.357595   1.000000
    3        0.816061   1.000000
    4        4.006796   1.000000
    5        5.274230   1.000000
    6        7.601195   1.000000
    7        8.470451   1.000000
    8       10.011171  -0.000000
    9       14.948336   0.000000
   10       15.851752   0.000000

  0.3333333E+00  0.3333333E+00  0.3742002E-15  0.5925926E-03
    1       -0.498165   1.000000
    2       -0.498163   1.000000
    3        0.119658   1.000000
    4        4.559228   1.000000
    5        4.559230   1.000000
    6        8.266678   1.000000
    7        8.266679   1.000000
    8        9.501704  -0.000000
    9       15.648880   0.000000
   10       15.648881   0.000000

  0.3742002E-15  0.3742002E-15  0.6666667E-01  0.5925926E-03
    1       -5.712633   1.000000
    2        3.745990   1.000000
    3        4.546235   1.000000
    4        4.546238   1.000000
    5        5.494827   1.000000
    6        8.859558   0.966383
    7        8.859559   0.966380
    8       11.028444  -0.000000
    9       11.028447  -0.000000
   10       14.014892   0.000000

  0.6666667E-01  0.3766815E-15  0.6666667E-01  0.3555556E-02
    1       -5.626226   1.000000
    2        3.795660   1.000000
    3        4.320426   1.000000
    4        4.576624   1.000000
    5        5.337619   1.000000
    6        8.796903   1.033556
    7        9.083487  -0.026746
    8       10.740610  -0.000000
    9       10.821345  -0.000000
   10       14.202918   0.000000

  0.1333333E+00  0.3754153E-15  0.6666667E-01  0.3555556E-02
    1       -5.370698   1.000000
    2        3.708485   1.000000
    3        3.895227   1.000000
    4        4.647091   1.000000
    5        5.028444   1.000000
    6        8.648293   1.000232
    7        9.408340  -0.000000
    8       10.380689  -0.000000
    9       10.451358  -0.000000
   10       14.467589   0.000000

  0.2000000E+00  0.3870416E-15  0.6666667E-01  0.3555556E-02
    1       -4.956402   1.000000
    2        2.865944   1.000000
    3        3.887960   1.000000
    4        4.705524   1.000000
    5        4.795709   1.000000
    6        8.510317   1.000000
    7        9.208083  -0.000325
    8       10.162202  -0.000000
    9       10.730435  -0.000000
   10       14.583916   0.000000

  0.2666667E+00  0.4120044E-15  0.6666667E-01  0.3555556E-02
    1       -4.398764   1.000000
    2        1.912597   1.000000
    3        3.708555   1.000000
    4        4.643774   1.000000
    5        4.703503   1.000000
    6        8.452401   1.000000
    7        9.146809  -0.004722
    8       10.026971  -0.000000
    9       11.118945  -0.000000
   10       14.720139   0.000000

  0.3333333E+00  0.4025434E-15  0.6666667E-01  0.3555556E-02
    1       -3.716435   1.000000
    2        0.916273   1.000000
    3        3.488926   1.000000
    4        4.429829   1.000000
    5        4.639922   1.000000
    6        8.447730   1.000000
    7        9.512013  -0.000000
    8       10.068587  -0.000000
    9       11.186847  -0.000000
   10       15.092306   0.000000

  0.4000000E+00  0.3732510E-15  0.6666667E-01  0.3555556E-02
    1       -2.931195   1.000000
    2       -0.084018   1.000000
    3        3.321124   1.000000
    4        4.194850   1.000000
    5        4.557737   1.000000
    6        8.441150   1.000000
    7       10.026423  -0.000000
    8       10.233033  -0.000000
    9       11.225299  -0.000000
   10       14.965628   0.000000

  0.4666667E+00  0.3915456E-15  0.6666667E-01  0.3555556E-02
    1       -2.084641   1.000000
    2       -1.039741   1.000000
    3        3.233869   1.000000
    4        4.047829   1.000000
    5        4.503672   1.000000
    6        8.429392   1.000000
    7       10.233075  -0.000000
    8       10.376734  -0.000000
    9       11.526021  -0.000000
   10       14.758129   0.000000

  0.6666667E-01  0.6666667E-01  0.6666667E-01  0.3555556E-02
    1       -5.455232   1.000000
    2        3.869657   1.000000
    3        3.927592   1.000000
    4        4.568529   1.000000
    5        5.149191   1.000000
    6        8.632258   1.000098
    7        9.449964  -0.000000
    8       10.345043  -0.000000
    9       10.587354  -0.000000
   10       14.541626   0.000000

  0.1333333E+00  0.6666667E-01  0.6666667E-01  0.7111111E-02
    1       -5.120161   1.000000
    2        3.245099   1.000000
    3        3.910296   1.000000
    4        4.420311   1.000000
    5        5.093629   1.000000
    6        8.347279   1.000000
    7        9.588260  -0.000000
    8       10.033537  -0.000000
    9       10.668686  -0.000000
   10       14.804835   0.000000

  0.2000000E+00  0.6666667E-01  0.6666667E-01  0.7111111E-02
    1       -4.633727   1.000000
    2        2.383705   1.000000
    3        3.784101   1.000000
    4        4.222535   1.000000
    5        5.180698   1.000000
    6        8.097914   1.000000
    7        9.327007  -0.000000
    8       10.005822  -0.000000
    9       11.192682  -0.000000
   10       14.782748   0.000000

  0.2666667E+00  0.6666667E-01  0.6666667E-01  0.7111111E-02
    1       -4.012708   1.000000
    2        1.434384   1.000000
    3        3.574371   1.000000
    4        3.990177   1.000000
    5        5.214709   1.000000
    6        8.017069   1.000000
    7        9.272010  -0.000008
    8       10.156085  -0.000000
    9       11.526432  -0.000000
   10       14.958199   0.000000

  0.3333333E+00  0.6666667E-01  0.6666667E-01  0.7111111E-02
    1       -3.276730   1.000000
    2        0.449789   1.000000
    3        3.401850   1.000000
    4        3.734288   1.000000
    5        5.131064   1.000000
    6        8.028053   1.000000
    7        9.515943  -0.000000
    8       10.428938  -0.000000
    9       11.593136  -0.000000
   10       15.164761   0.000000

  0.4000000E+00  0.6666667E-01  0.6666667E-01  0.7111111E-02
    1       -2.450887   1.000000
    2       -0.530515   1.000000
    3        3.304174   1.000000
    4        3.531731   1.000000
    5        5.023589   1.000000
    6        8.004016   1.000000
    7        9.950121  -0.000000
    8       10.584149  -0.000000
    9       11.680807   0.000000
   10       15.046861   0.000000

  0.4666667E+00  0.6666667E-01  0.6666667E-01  0.3555556E-02
    1       -1.719888   1.000000
    2       -1.313912   1.000000
    3        3.277280   1.000000
    4        3.451952   1.000000
    5        4.978779   1.000000
    6        7.984694   1.000000
    7       10.200808  -0.000000
    8       10.571199  -0.000000
    9       11.769903   0.000000
   10       14.972077   0.000000

  0.1333333E+00  0.1333333E+00  0.6666667E-01  0.3555556E-02
    1       -4.712578   1.000000
    2        2.631918   1.000000
    3        3.761337   1.000000
    4        4.037892   1.000000
    5        5.389992   1.000000
    6        7.843054   1.000000
    7        9.470413  -0.000000
    8        9.962089  -0.000000
    9       11.290117  -0.000000
   10       14.992856   0.000000

  0.2000000E+00  0.1333333E+00  0.6666667E-01  0.7111111E-02
    1       -4.161583   1.000000
    2        1.877720   1.000000
    3        3.393628   1.000000
    4        3.797071   1.000000
    5        5.712694   1.000000
    6        7.422266   1.000000
    7        9.090403  -0.023561
    8       10.306168  -0.000000
    9       12.001191   0.000000
   10       14.731596   0.000000

  0.2666667E+00  0.1333333E+00  0.6666667E-01  0.7111111E-02
    1       -3.484391   1.000000
    2        1.008050   1.000000
    3        3.034388   1.000000
    4        3.613699   1.000000
    5        5.806344   1.000000
    6        7.310031   1.000000
    7        8.919285   0.602311
    8       10.681758  -0.000000
    9       12.421962   0.000000
   10       14.940001   0.000000

  0.3333333E+00  0.1333333E+00  0.6666667E-01  0.7111111E-02
    1       -2.701501   1.000000
    2        0.071814   1.000000
    3        2.767813   1.000000
    4        3.496646   1.000000
    5        5.653027   1.000000
    6        7.353738   1.000000
    7        9.156705  -0.003257
    8       10.847367  -0.000000
    9       12.544942   0.000000
   10       15.317770   0.000000

  0.4000000E+00  0.1333333E+00  0.6666667E-01  0.7111111E-02
    1       -1.844751   1.000000
    2       -0.869976   1.000000
    3        2.626782   1.000000
    4        3.445249   1.000000
    5        5.515069   1.000000
    6        7.337183   1.000000
    7        9.633963  -0.000000
    8       10.709275  -0.000000
    9       12.567637   0.000000
   10       15.506650   0.000000

  0.2000000E+00  0.2000000E+00  0.6666667E-01  0.3555556E-02
    1       -3.553599   1.000000
    2        1.325439   1.000000
    3        2.700346   1.000000
    4        3.668521   1.000000
    5        6.325436   1.000000
    6        6.758474   1.000000
    7        8.680383   1.001103
    8       10.765936  -0.000000
    9       12.937678   0.000000
   10       14.599554   0.000000

  0.2666667E+00  0.2000000E+00  0.6666667E-01  0.7111111E-02
    1       -2.827362   1.000000
    2        0.638866   1.000000
    3        2.124204   1.000000
    4        3.642063   1.000000
    5        6.115298   1.000000
    6        6.969239   1.000000
    7        8.490790   1.000000
    8       10.941181  -0.000000
    9       13.572773   0.000000
   10       14.888645   0.000000

  0.3333333E+00  0.2000000E+00  0.6666667E-01  0.7111111E-02
    1       -2.005363   1.000000
    2       -0.204388   1.000000
    3        1.798029   1.000000
    4        3.677499   1.000000
    5        5.691894   1.000000
    6        7.222570   1.000000
    7        8.819376   1.033555
    8       10.669011  -0.000000
    9       13.722807   0.000000
   10       15.546676   0.000000

  0.4000000E+00  0.2000000E+00  0.6666667E-01  0.3555556E-02
    1       -1.171876   1.000000
    2       -1.056700   1.000000
    3        1.697103   1.000000
    4        3.705584   1.000000
    5        5.530246   1.000000
    6        7.242637   1.000000
    7        9.220536  -0.000170
    8       10.332150  -0.000000
    9       13.733334   0.000000
   10       15.879479   0.000000

  0.2666667E+00  0.2666667E+00  0.6666667E-01  0.3555556E-02
    1       -2.061528   1.000000
    2        0.253392   1.000000
    3        1.285120   1.000000
    4        3.804965   1.000000
    5        5.603077   1.000000
    6        7.572724   1.000000
    7        8.223597   1.000000
    8       10.649765  -0.000000
    9       14.721268   0.000000
   10       14.919723   0.000000

  0.3333333E+00  0.2666667E+00  0.6666667E-01  0.7111111E-02
    1       -1.220743   1.000000
    2       -0.376592   1.000000
    3        0.834463   1.000000
    4        4.022646   1.000000
    5        5.128797   1.000000
    6        7.832094   1.000000
    7        8.592731   1.000009
    8       10.025974  -0.000000
    9       14.852612   0.000000
   10       15.661232   0.000000

  0.3333333E+00  0.3333333E+00  0.6666667E-01  0.1185185E-02
    1       -0.537928   1.000000
    2       -0.537926   1.000000
    3        0.192834   1.000000
    4        4.519323   1.000000
    5        4.519325   1.000000
    6        8.421762   1.000000
    7        8.421763   1.000000
    8        9.521619  -0.000000
    9       15.531911   0.000000
   10       15.531912   0.000000

  0.3742002E-15  0.3742002E-15  0.1333333E+00  0.5925926E-03
    1       -5.538277   1.000000
    2        3.099362   1.000000
    3        4.690339   1.000000
    4        4.690341   1.000000
    5        5.988105   1.000000
    6        8.461112   1.000000
    7        8.461114   1.000000
    8       10.671288  -0.000000
    9       10.671291  -0.000000
   10       14.557107   0.000000

  0.6666667E-01  0.3766815E-15  0.1333333E+00  0.3555556E-02
    1       -5.454860   1.000000
    2        3.145446   1.000000
    3        4.448860   1.000000
    4        4.704659   1.000000
    5        5.809593   1.000000
    6        8.367457   1.000000
    7        8.653620   1.000305
    8       10.574986  -0.000000
    9       10.665161  -0.000000
   10       14.734960   0.000000

  0.1333333E+00  0.3754153E-15  0.1333333E+00  0.3555556E-02
    1       -5.208398   1.000000
    2        3.234876   1.000000
    3        3.823385   1.000000
    4        4.720165   1.000000
    5        5.469268   1.000000
    6        8.201313   1.000000
    7        8.865819   0.943778
    8       10.586250  -0.000000
    9       10.621817  -0.000000
   10       14.648602   0.000000

  0.2000000E+00  0.3870416E-15  0.1333333E+00  0.3555556E-02
    1       -4.809623   1.000000
    2        2.804869   1.000000
    3        3.490826   1.000000
    4        4.676859   1.000000
    5        5.127039   1.000000
    6        8.156349   1.000000
    7        8.820156   1.033237
    8       10.531422  -0.000000
    9       10.969439  -0.000000
   10       14.418168   0.000000

  0.2666667E+00  0.4120044E-15  0.1333333E+00  0.3555556E-02
    1       -4.273962   1.000000
    2        1.847275   1.000000
    3        3.535226   1.000000
    4        4.547340   1.000000
    5        4.791610   1.000000
    6        8.313745   1.000000
    7        8.874214   0.907340
    8       10.428953  -0.000000
    9       11.317812  -0.000000
   10       14.365894   0.000000

  0.3333333E+00  0.4025434E-15  0.1333333E+00  0.3555556E-02
    1       -3.619112   1.000000
    2        0.843123   1.000000
    3        3.537407   1.000000
    4        4.372658   1.000000
    5        4.463608   1.000000
    6        8.600194   1.000015
    7        9.181176  -0.001173
    8       10.364050  -0.000000
    9       11.418477  -0.000000
   10       14.677038   0.000000

  0.4000000E+00  0.3732510E-15  0.1333333E+00  0.3555556E-02
    1       -2.862877   1.000000
    2       -0.151445   1.000000
    3        3.514064   1.000000
    4        4.192341   1.000000
    5        4.217862   1.000000
    6        8.866946   0.939301
    7        9.509143  -0.000000
    8       10.370343  -0.000000
    9       11.617150  -0.000000
   10       14.708931   0.000000

  0.4666667E+00  0.3915456E-15  0.1333333E+00  0.3555556E-02
    1       -2.022713   1.000000
    2       -1.111678   1.000000
    3        3.495854   1.000000
    4        4.039323   1.000000
    5        4.129666   1.000000
    6        9.008205   0.018795
    7        9.630768  -0.000000
    8       10.415021  -0.000000
    9       12.046520   0.000000
   10       14.322738   0.000000

  0.6666667E-01  0.6666667E-01  0.1333333E+00  0.3555556E-02
    1       -5.289908   1.000000
    2        3.220866   1.000000
    3        4.035706   1.000000
    4        4.648111   1.000000
    5        5.625717   1.000000
    6        8.118437   1.000000
    7        8.977772   0.150906
    8       10.410063  -0.000000
    9       10.730928  -0.000000
   10       15.287533   0.000000

  0.1333333E+00  0.6666667E-01  0.1333333E+00  0.7111111E-02
    1       -4.967192   1.000000
    2        3.198149   1.000000
    3        3.437079   1.000000
    4        4.450372   1.000000
    5        5.533973   1.000000
    6        7.783778   1.000000
    7        9.233258  -0.000085
    8       10.322188  -0.000000
    9       10.938205  -0.000000
   10       14.810521   0.000000

  0.2000000E+00  0.6666667E-01  0.1333333E+00  0.7111111E-02
    1       -4.499666   1.000000
    2        2.353594   1.000000
    3        3.444681   1.000000
    4        4.203070   1.000000
    5        5.422086   1.000000
    6        7.655720   1.000000
    7        9.313779  -0.000000
    8       10.308797  -0.000000
    9       11.332998  -0.000000
   10       14.502889   0.000000

  0.2666667E+00  0.6666667E-01  0.1333333E+00  0.7111111E-02
    1       -3.903860   1.000000
    2        1.376116   1.000000
    3        3.453915   1.000000
    4        3.955479   1.000000
    5        5.175424   1.000000
    6        7.854034   1.000000
    7        9.486239  -0.000000
    8       10.277791  -0.000000
    9       11.613941  -0.000000
   10       14.537251   0.000000

  0.3333333E+00  0.6666667E-01  0.1333333E+00  0.7111111E-02
    1       -3.197555   1.000000
    2        0.384115   1.000000
    3        3.432343   1.000000
    4        3.733680   1.000000
    5        4.882047   1.000000
    6        8.225361   1.000000
    7        9.723445  -0.000000
    8       10.284617  -0.000000
    9       11.765329   0.000000
   10       14.767735   0.000000

  0.4000000E+00  0.6666667E-01  0.1333333E+00  0.7111111E-02
    1       -2.398406   1.000000
    2       -0.589583   1.000000
    3        3.408245   1.000000
    4        3.582450   1.000000
    5        4.661261   1.000000
    6        8.503288   1.000000
    7        9.958328  -0.000000
    8       10.283274  -0.000000
    9       12.038465   0.000000
   10       14.626384   0.000000

  0.4666667E+00  0.6666667E-01  0.1333333E+00  0.3555556E-02
    1       -1.538130   1.000000
    2       -1.508444   1.000000
    3        3.394794   1.000000
    4        3.533667   1.000000
    5        4.580300   1.000000
    6        8.587052   1.000006
    7       10.094393  -0.000000
    8       10.251276  -0.000000
    9       12.238131   0.000000
   10       14.438118   0.000000

  0.1333333E+00  0.1333333E+00  0.1333333E+00  0.3555556E-02
    1       -4.575491   1.000000
    2        2.687452   1.000000
    3        3.264635   1.000000
    4        4.036556   1.000000
    5        5.851825   1.000000
    6        7.174576   1.000000
    7        9.736362  -0.000000
    8       10.040063  -0.000000
    9       11.378103  -0.000000
   10       14.821675   0.000000

  0.2000000E+00  0.1333333E+00  0.1333333E+00  0.7111111E-02
    1       -4.047157   1.000000
    2        1.882549   1.000000
    3        3.077915   1.000000
    4        3.811274   1.000000
    5        5.950465   1.000000
    6        6.928978   1.000000
    7        9.754815  -0.000000
    8       10.198205  -0.000000
    9       11.904455   0.000000
   10       14.516017   0.000000

  0.2666667E+00  0.1333333E+00  0.1333333E+00  0.7111111E-02
    1       -3.398839   1.000000
    2        0.968166   1.000000
    3        2.865031   1.000000
    4        3.703226   1.000000
    5        5.565725   1.000000
    6        7.341521   1.000000
    7        9.578961  -0.000000
    8       10.517903  -0.000000
    9       12.292683   0.000000
   10       14.588421   0.000000

  0.3333333E+00  0.1333333E+00  0.1333333E+00  0.7111111E-02
    1       -2.648524   1.000000
    2        0.020619   1.000000
    3        2.694970   1.000000
    4        3.657599   1.000000
    5        5.168228   1.000000
    6        7.847659   1.000000
    7        9.564984  -0.000000
    8       10.624942  -0.000000
    9       12.536264   0.000000
   10       14.809576   0.000000

  0.4000000E+00  0.1333333E+00  0.1333333E+00  0.7111111E-02
    1       -1.815216   1.000000
    2       -0.916192   1.000000
    3        2.601193   1.000000
    4        3.652398   1.000000
    5        4.935336   1.000000
    6        8.111321   1.000000
    7        9.785511  -0.000000
    8       10.494862  -0.000000
    9       12.681306   0.000000
   10       14.879693   0.000000

  0.2000000E+00  0.2000000E+00  0.1333333E+00  0.3555556E-02
    1       -3.465942   1.000000
    2        1.331360   1.000000
    3        2.475837   1.000000
    4        3.723850   1.000000
    5        6.114284   1.000000
    6        6.703189   1.000000
    7        9.472469  -0.000000
    8       10.638942  -0.000000
    9       12.630476   0.000000
   10       14.417587   0.000000

  0.2666667E+00  0.2000000E+00  0.1333333E+00  0.7111111E-02
    1       -2.773185   1.000000
    2        0.608401   1.000000
    3        2.025806   1.000000
    4        3.734391   1.000000
    5        5.564410   1.000000
    6        7.350663   1.000000
    7        9.204676  -0.000386
    8       10.820611  -0.000000
    9       13.252855   0.000000
   10       14.592812   0.000000
