   73   73    1    1
  0.2115814E+02  0.1036705E-08  0.2428040E-08  0.6136055E-09  0.5000000E-15
   1.0000000000000000E-004
  CAR 
 Name                                    
    277     23    176

  0.3742002E-15  0.1262379E-14  0.3742002E-15  0.2222222E-01
    1      -14.057283   1.000000
    2      -12.876239   1.000000
    3      -12.869932   1.000000
    4      -12.826289   1.000000
    5      -11.935924   1.000000
    6      -11.718032   1.000000
    7      -11.696654   1.000000
    8      -11.512252   1.000000
    9      -11.507311   1.000000
   10      -11.309927   1.000000
   11      -11.239403   1.000000
   12      -11.022321   1.000000
   13      -11.007125   1.000000
   14      -10.524307   1.000000
   15      -10.469085   1.000000
   16      -10.259587   1.000000
   17      -10.193890   1.000000
   18      -10.098862   1.000000
   19       -9.699929   1.000000
   20       -9.635480   1.000000
   21       -9.551369   1.000000
   22       -9.550719   1.000000
   23       -9.386491   1.000000
   24       -9.329013   1.000000
   25       -8.876612   1.000000
   26       -8.844997   1.000000
   27       -8.587911   1.000000
   28       -8.463717   1.000000
   29       -8.227340   1.000000
   30       -8.160417   1.000000
   31       -8.158816   1.000000
   32       -7.815805   1.000000
   33       -7.763322   1.000000
   34       -7.330223   1.000000
   35       -7.230650   1.000000
   36       -7.163744   1.000000
   37       -7.035137   1.000000
   38       -6.895899   1.000000
   39       -6.798679   1.000000
   40       -6.723979   1.000000
   41       -6.719624   1.000000
   42       -6.698828   1.000000
   43       -6.576262   1.000000
   44       -6.435697   1.000000
   45       -6.329548   1.000000
   46       -6.276355   1.000000
   47       -6.185082   1.000000
   48       -6.142571   1.000000
   49       -6.118628   1.000000
   50       -5.873074   1.000000
   51       -5.810622   1.000000
   52       -5.667646   1.000000
   53       -5.656007   1.000000
   54       -5.644059   1.000000
   55       -5.575136   1.000000
   56       -5.490465   1.000000
   57       -5.423993   1.000000
   58       -5.382639   1.000000
   59       -5.226227   1.000000
   60       -5.211307   1.000000
   61       -5.096336   1.000000
   62       -4.732941   1.000000
   63       -4.716021   1.000000
   64       -4.661068   1.000000
   65       -4.641362   1.000000
   66       -4.557808   1.000000
   67       -4.546779   1.000000
   68       -4.344439   1.000000
   69       -4.147847   1.000000
   70       -4.100287   1.000000
   71       -4.058518   1.000000
   72       -4.049838   1.000000
   73       -4.016135   1.000000
   74       -3.956713   1.000000
   75       -3.954386   1.000000
   76       -3.922488   1.000000
   77       -3.912782   1.000000
   78       -3.839453   1.000000
   79       -3.786706   1.000000
   80       -3.620224   1.000000
   81       -3.606016   1.000000
   82       -3.598066   1.000000
   83       -3.585932   1.000000
   84       -3.571393   1.000000
   85       -3.521784   1.000000
   86       -3.513825   1.000000
   87       -3.511354   1.000000
   88       -3.502871   1.000000
   89       -3.462587   1.000000
   90       -3.427246   1.000000
   91       -3.365726   1.000000
   92       -3.264494   1.000000
   93       -2.970718   1.000000
   94       -2.939195   1.000000
   95       -2.930303   1.000000
   96       -2.831054   1.000000
   97       -2.793994   1.000000
   98       -2.731110   1.000000
   99       -2.591521   1.000000
  100       -2.445236   1.000000
  101       -2.329559   1.000000
  102       -2.316171   1.000000
  103       -2.310036   1.000000
  104       -2.264716   1.000000
  105       -2.143831   1.000000
  106       -2.065313   1.000000
  107       -2.040057   1.000000
  108       -2.013857   1.000000
  109       -1.956238   1.000000
  110       -1.932079   1.000000
  111       -1.871475   1.000000
  112       -1.800599   1.000000
  113       -1.750756   1.000000
  114       -1.644437   1.000000
  115       -1.612809   1.000000
  116       -1.591602   1.000000
  117       -1.575382   1.000000
  118       -1.571463   1.000000
  119       -1.455118   1.000000
  120       -1.360020   1.000000
  121       -1.184655   1.000000
  122       -0.970157   1.000000
  123       -0.835926   1.000000
  124       -0.814684   1.000000
  125       -0.700100   1.000000
  126       -0.606566   1.000000
  127       -0.450283   1.000000
  128       -0.438784   1.000000
  129       -0.344444   1.000000
  130       -0.333004   1.000000
  131       -0.074587   1.000000
  132       -0.063366   1.000000
  133        0.089059   1.001104
  134        0.251436   1.009070
  135        0.267522   0.968650
  136        0.282744   0.907937
  137        0.354494   0.379817
  138        0.410580   0.038564
  139        0.456026  -0.034730
  140        0.460791  -0.035406
  141        0.542363  -0.007433
  142        0.586214  -0.001377
  143        0.595411  -0.000912
  144        0.602603  -0.000651
  145        0.612671  -0.000399
  146        0.653351  -0.000044
  147        0.670151  -0.000016
  148        0.822153  -0.000000
  149        0.836088  -0.000000
  150        0.847984  -0.000000
  151        1.051241  -0.000000
  152        1.067836  -0.000000
  153        1.112082  -0.000000
  154        1.160361  -0.000000
  155        1.184942  -0.000000
  156        1.228328  -0.000000
  157        1.238424  -0.000000
  158        1.338748  -0.000000
  159        1.362672  -0.000000
  160        1.364674  -0.000000
  161        1.391199  -0.000000
  162        1.404601  -0.000000
  163        1.419560  -0.000000
  164        1.427147  -0.000000
  165        1.564550  -0.000000
  166        1.644794  -0.000000
  167        1.680501  -0.000000
  168        1.697579  -0.000000
  169        1.713968  -0.000000
  170        1.756288  -0.000000
  171        1.766412  -0.000000
  172        2.180521  -0.000000
  173        2.405038  -0.000000
  174        2.420430  -0.000000
  175        2.496235  -0.000000
  176        2.832782  -0.000000

  0.2000000E+00  0.1262379E-14  0.3742002E-15  0.4444444E-01
    1      -14.007928   1.000000
    2      -13.287411   1.000000
    3      -12.781813   1.000000
    4      -12.381700   1.000000
    5      -12.101622   1.000000
    6      -11.919448   1.000000
    7      -11.666371   1.000000
    8      -11.323557   1.000000
    9      -11.300580   1.000000
   10      -11.244858   1.000000
   11      -11.192108   1.000000
   12      -11.111595   1.000000
   13      -10.887252   1.000000
   14      -10.621323   1.000000
   15      -10.588997   1.000000
   16      -10.573108   1.000000
   17      -10.500466   1.000000
   18       -9.830607   1.000000
   19       -9.686343   1.000000
   20       -9.578374   1.000000
   21       -9.515176   1.000000
   22       -9.483674   1.000000
   23       -9.410282   1.000000
   24       -9.339181   1.000000
   25       -9.051268   1.000000
   26       -8.834445   1.000000
   27       -8.321366   1.000000
   28       -8.241333   1.000000
   29       -8.155612   1.000000
   30       -8.126454   1.000000
   31       -8.075606   1.000000
   32       -8.060474   1.000000
   33       -7.633452   1.000000
   34       -7.482106   1.000000
   35       -7.291511   1.000000
   36       -7.240879   1.000000
   37       -7.189857   1.000000
   38       -6.979116   1.000000
   39       -6.903682   1.000000
   40       -6.751095   1.000000
   41       -6.659998   1.000000
   42       -6.625498   1.000000
   43       -6.555286   1.000000
   44       -6.444819   1.000000
   45       -6.367045   1.000000
   46       -6.319081   1.000000
   47       -6.197375   1.000000
   48       -6.086675   1.000000
   49       -6.047054   1.000000
   50       -6.028552   1.000000
   51       -5.757771   1.000000
   52       -5.681279   1.000000
   53       -5.653607   1.000000
   54       -5.516332   1.000000
   55       -5.369846   1.000000
   56       -5.359538   1.000000
   57       -5.291230   1.000000
   58       -5.281034   1.000000
   59       -5.246058   1.000000
   60       -5.205723   1.000000
   61       -5.112895   1.000000
   62       -5.029307   1.000000
   63       -4.829837   1.000000
   64       -4.723789   1.000000
   65       -4.584603   1.000000
   66       -4.573902   1.000000
   67       -4.507671   1.000000
   68       -4.375231   1.000000
   69       -4.131298   1.000000
   70       -4.125493   1.000000
   71       -4.107811   1.000000
   72       -4.068395   1.000000
   73       -4.051178   1.000000
   74       -4.013586   1.000000
   75       -3.895149   1.000000
   76       -3.878224   1.000000
   77       -3.851918   1.000000
   78       -3.760087   1.000000
   79       -3.735665   1.000000
   80       -3.694139   1.000000
   81       -3.640647   1.000000
   82       -3.634851   1.000000
   83       -3.608741   1.000000
   84       -3.592461   1.000000
   85       -3.559042   1.000000
   86       -3.511356   1.000000
   87       -3.471610   1.000000
   88       -3.464469   1.000000
   89       -3.457235   1.000000
   90       -3.439339   1.000000
   91       -3.325071   1.000000
   92       -3.294249   1.000000
   93       -3.014410   1.000000
   94       -2.980212   1.000000
   95       -2.954057   1.000000
   96       -2.822523   1.000000
   97       -2.794486   1.000000
   98       -2.700533   1.000000
   99       -2.620571   1.000000
  100       -2.500176   1.000000
  101       -2.358571   1.000000
  102       -2.335101   1.000000
  103       -2.304451   1.000000
  104       -2.228399   1.000000
  105       -2.099683   1.000000
  106       -2.002809   1.000000
  107       -1.994114   1.000000
  108       -1.969606   1.000000
  109       -1.942393   1.000000
  110       -1.920244   1.000000
  111       -1.877075   1.000000
  112       -1.869765   1.000000
  113       -1.722650   1.000000
  114       -1.619886   1.000000
  115       -1.572673   1.000000
  116       -1.508420   1.000000
  117       -1.477260   1.000000
  118       -1.435588   1.000000
  119       -1.412182   1.000000
  120       -1.329713   1.000000
  121       -1.152182   1.000000
  122       -0.981365   1.000000
  123       -0.891585   1.000000
  124       -0.862060   1.000000
  125       -0.756527   1.000000
  126       -0.655247   1.000000
  127       -0.539979   1.000000
  128       -0.451771   1.000000
  129       -0.412042   1.000000
  130       -0.352823   1.000000
  131       -0.229434   1.000000
  132       -0.203907   1.000000
  133       -0.099233   1.000000
  134        0.123473   1.004500
  135        0.135968   1.006973
  136        0.230689   1.032354
  137        0.324787   0.628162
  138        0.416524   0.019762
  139        0.436572  -0.021030
  140        0.554775  -0.004842
  141        0.594774  -0.000939
  142        0.620655  -0.000266
  143        0.637414  -0.000109
  144        0.650299  -0.000052
  145        0.678435  -0.000009
  146        0.697646  -0.000003
  147        0.736221  -0.000000
  148        0.792673  -0.000000
  149        0.853605  -0.000000
  150        0.924693  -0.000000
  151        1.086258  -0.000000
  152        1.132739  -0.000000
  153        1.154214  -0.000000
  154        1.204809  -0.000000
  155        1.243696  -0.000000
  156        1.297029  -0.000000
  157        1.317295  -0.000000
  158        1.334977  -0.000000
  159        1.355747  -0.000000
  160        1.367528  -0.000000
  161        1.434664  -0.000000
  162        1.448201  -0.000000
  163        1.450191  -0.000000
  164        1.483353  -0.000000
  165        1.542956  -0.000000
  166        1.622910  -0.000000
  167        1.666494  -0.000000
  168        1.722652  -0.000000
  169        1.743549  -0.000000
  170        1.765795  -0.000000
  171        1.791040  -0.000000
  172        2.113671  -0.000000
  173        2.152840  -0.000000
  174        2.328118  -0.000000
  175        2.471164  -0.000000
  176        2.608186  -0.000000

  0.4000000E+00  0.1262379E-14  0.3742002E-15  0.4444444E-01
    1      -13.860891   1.000000
    2      -13.619025   1.000000
    3      -12.644154   1.000000
    4      -12.414920   1.000000
    5      -11.870159   1.000000
    6      -11.825536   1.000000
    7      -11.786114   1.000000
    8      -11.270809   1.000000
    9      -11.227310   1.000000
   10      -11.215765   1.000000
   11      -11.085816   1.000000
   12      -11.057186   1.000000
   13      -10.868078   1.000000
   14      -10.828929   1.000000
   15      -10.743801   1.000000
   16      -10.698674   1.000000
   17      -10.604876   1.000000
   18      -10.114376   1.000000
   19       -9.733819   1.000000
   20       -9.610411   1.000000
   21       -9.458996   1.000000
   22       -9.357397   1.000000
   23       -9.302375   1.000000
   24       -9.254918   1.000000
   25       -9.072583   1.000000
   26       -8.789535   1.000000
   27       -8.327051   1.000000
   28       -8.092633   1.000000
   29       -7.943112   1.000000
   30       -7.862360   1.000000
   31       -7.820239   1.000000
   32       -7.782955   1.000000
   33       -7.764236   1.000000
   34       -7.743678   1.000000
   35       -7.520673   1.000000
   36       -7.462057   1.000000
   37       -7.374873   1.000000
   38       -7.253048   1.000000
   39       -7.121943   1.000000
   40       -6.856071   1.000000
   41       -6.725178   1.000000
   42       -6.579904   1.000000
   43       -6.453509   1.000000
   44       -6.381261   1.000000
   45       -6.371380   1.000000
   46       -6.144940   1.000000
   47       -6.104311   1.000000
   48       -5.993968   1.000000
   49       -5.914796   1.000000
   50       -5.856827   1.000000
   51       -5.833783   1.000000
   52       -5.744169   1.000000
   53       -5.723260   1.000000
   54       -5.658211   1.000000
   55       -5.457274   1.000000
   56       -5.364944   1.000000
   57       -5.258120   1.000000
   58       -5.155942   1.000000
   59       -5.117790   1.000000
   60       -5.088481   1.000000
   61       -5.034301   1.000000
   62       -4.922438   1.000000
   63       -4.879195   1.000000
   64       -4.716302   1.000000
   65       -4.637035   1.000000
   66       -4.582783   1.000000
   67       -4.402217   1.000000
   68       -4.361548   1.000000
   69       -4.344853   1.000000
   70       -4.240602   1.000000
   71       -4.141223   1.000000
   72       -4.108702   1.000000
   73       -4.053964   1.000000
   74       -4.012222   1.000000
   75       -4.000622   1.000000
   76       -3.972976   1.000000
   77       -3.932544   1.000000
   78       -3.824275   1.000000
   79       -3.716740   1.000000
   80       -3.700467   1.000000
   81       -3.692527   1.000000
   82       -3.672179   1.000000
   83       -3.637377   1.000000
   84       -3.576476   1.000000
   85       -3.484517   1.000000
   86       -3.470385   1.000000
   87       -3.446236   1.000000
   88       -3.325529   1.000000
   89       -3.302748   1.000000
   90       -3.285026   1.000000
   91       -3.267491   1.000000
   92       -3.208728   1.000000
   93       -3.127724   1.000000
   94       -3.077734   1.000000
   95       -3.041450   1.000000
   96       -2.946176   1.000000
   97       -2.830464   1.000000
   98       -2.821266   1.000000
   99       -2.654490   1.000000
  100       -2.504200   1.000000
  101       -2.343387   1.000000
  102       -2.268796   1.000000
  103       -2.198093   1.000000
  104       -2.183739   1.000000
  105       -2.169605   1.000000
  106       -2.078722   1.000000
  107       -2.023325   1.000000
  108       -1.983089   1.000000
  109       -1.975421   1.000000
  110       -1.965339   1.000000
  111       -1.732724   1.000000
  112       -1.629789   1.000000
  113       -1.593853   1.000000
  114       -1.524232   1.000000
  115       -1.510521   1.000000
  116       -1.410304   1.000000
  117       -1.357972   1.000000
  118       -1.263715   1.000000
  119       -1.204116   1.000000
  120       -1.113797   1.000000
  121       -1.078850   1.000000
  122       -1.057407   1.000000
  123       -1.020553   1.000000
  124       -0.972823   1.000000
  125       -0.945807   1.000000
  126       -0.736448   1.000000
  127       -0.701857   1.000000
  128       -0.684158   1.000000
  129       -0.580623   1.000000
  130       -0.569101   1.000000
  131       -0.409601   1.000000
  132       -0.332858   1.000000
  133       -0.101071   1.000000
  134       -0.073066   1.000000
  135        0.066366   1.000375
  136        0.290668   0.867127
  137        0.316041   0.697450
  138        0.335987   0.535028
  139        0.459821  -0.035334
  140        0.535885  -0.009148
  141        0.554084  -0.004964
  142        0.561948  -0.003712
  143        0.624059  -0.000223
  144        0.648788  -0.000057
  145        0.689525  -0.000005
  146        0.706432  -0.000001
  147        0.820884  -0.000000
  148        0.953171  -0.000000
  149        0.970482  -0.000000
  150        1.014260  -0.000000
  151        1.179126  -0.000000
  152        1.184179  -0.000000
  153        1.214353  -0.000000
  154        1.264093  -0.000000
  155        1.266999  -0.000000
  156        1.337457  -0.000000
  157        1.399150  -0.000000
  158        1.440834  -0.000000
  159        1.461682  -0.000000
  160        1.476526  -0.000000
  161        1.491235  -0.000000
  162        1.505592  -0.000000
  163        1.543813  -0.000000
  164        1.592781  -0.000000
  165        1.614905  -0.000000
  166        1.650302  -0.000000
  167        1.673505  -0.000000
  168        1.716967  -0.000000
  169        1.741224  -0.000000
  170        1.787206  -0.000000
  171        1.819797  -0.000000
  172        1.850432  -0.000000
  173        1.886153  -0.000000
  174        1.934552  -0.000000
  175        2.639029  -0.000000
  176        3.072644   0.000000

  0.3742002E-15  0.1262379E-14  0.1111111E+00  0.4444444E-01
    1      -14.012017   1.000000
    2      -12.841627   1.000000
    3      -12.835410   1.000000
    4      -12.788403   1.000000
    5      -12.040274   1.000000
    6      -11.690120   1.000000
    7      -11.668327   1.000000
    8      -11.557724   1.000000
    9      -11.553008   1.000000
   10      -11.378741   1.000000
   11      -11.200410   1.000000
   12      -11.032591   1.000000
   13      -11.018114   1.000000
   14      -10.504852   1.000000
   15      -10.488876   1.000000
   16      -10.238889   1.000000
   17      -10.174225   1.000000
   18      -10.060172   1.000000
   19       -9.716078   1.000000
   20       -9.665721   1.000000
   21       -9.577577   1.000000
   22       -9.535958   1.000000
   23       -9.394403   1.000000
   24       -9.313341   1.000000
   25       -8.875777   1.000000
   26       -8.849029   1.000000
   27       -8.583411   1.000000
   28       -8.456986   1.000000
   29       -8.238743   1.000000
   30       -8.170320   1.000000
   31       -7.990017   1.000000
   32       -7.883462   1.000000
   33       -7.808626   1.000000
   34       -7.402733   1.000000
   35       -7.334391   1.000000
   36       -7.183857   1.000000
   37       -7.003895   1.000000
   38       -6.882748   1.000000
   39       -6.786572   1.000000
   40       -6.663264   1.000000
   41       -6.657116   1.000000
   42       -6.623111   1.000000
   43       -6.560667   1.000000
   44       -6.424115   1.000000
   45       -6.333929   1.000000
   46       -6.289201   1.000000
   47       -6.208633   1.000000
   48       -6.165599   1.000000
   49       -6.164781   1.000000
   50       -5.837207   1.000000
   51       -5.748348   1.000000
   52       -5.704700   1.000000
   53       -5.669085   1.000000
   54       -5.650559   1.000000
   55       -5.485499   1.000000
   56       -5.423232   1.000000
   57       -5.389644   1.000000
   58       -5.334074   1.000000
   59       -5.248202   1.000000
   60       -5.154996   1.000000
   61       -5.074987   1.000000
   62       -4.685169   1.000000
   63       -4.676771   1.000000
   64       -4.644172   1.000000
   65       -4.603697   1.000000
   66       -4.548916   1.000000
   67       -4.537602   1.000000
   68       -4.341522   1.000000
   69       -4.134751   1.000000
   70       -4.127863   1.000000
   71       -4.099851   1.000000
   72       -4.050812   1.000000
   73       -4.030028   1.000000
   74       -3.988872   1.000000
   75       -3.964013   1.000000
   76       -3.949024   1.000000
   77       -3.946707   1.000000
   78       -3.939531   1.000000
   79       -3.808599   1.000000
   80       -3.773459   1.000000
   81       -3.764571   1.000000
   82       -3.693506   1.000000
   83       -3.659759   1.000000
   84       -3.631192   1.000000
   85       -3.567691   1.000000
   86       -3.557003   1.000000
   87       -3.499195   1.000000
   88       -3.494987   1.000000
   89       -3.474256   1.000000
   90       -3.400169   1.000000
   91       -3.357499   1.000000
   92       -3.257771   1.000000
   93       -2.951239   1.000000
   94       -2.932987   1.000000
   95       -2.910276   1.000000
   96       -2.770573   1.000000
   97       -2.729276   1.000000
   98       -2.666400   1.000000
   99       -2.511636   1.000000
  100       -2.472473   1.000000
  101       -2.428193   1.000000
  102       -2.413342   1.000000
  103       -2.243858   1.000000
  104       -2.220853   1.000000
  105       -2.200910   1.000000
  106       -2.118255   1.000000
  107       -2.012925   1.000000
  108       -2.004898   1.000000
  109       -1.976876   1.000000
  110       -1.959165   1.000000
  111       -1.862134   1.000000
  112       -1.733176   1.000000
  113       -1.724708   1.000000
  114       -1.722305   1.000000
  115       -1.668889   1.000000
  116       -1.611556   1.000000
  117       -1.549506   1.000000
  118       -1.536074   1.000000
  119       -1.353787   1.000000
  120       -1.280835   1.000000
  121       -1.122132   1.000000
  122       -0.939813   1.000000
  123       -0.928626   1.000000
  124       -0.725391   1.000000
  125       -0.693114   1.000000
  126       -0.564831   1.000000
  127       -0.545859   1.000000
  128       -0.529009   1.000000
  129       -0.489311   1.000000
  130       -0.205083   1.000000
  131       -0.164731   1.000000
  132       -0.132946   1.000000
  133        0.167645   1.017478
  134        0.246596   1.017050
  135        0.261326   0.986923
  136        0.285258   0.895674
  137        0.298345   0.821704
  138        0.335772   0.536838
  139        0.399964   0.080731
  140        0.420548   0.008890
  141        0.426222  -0.004033
  142        0.439295  -0.024239
  143        0.595253  -0.000918
  144        0.613129  -0.000390
  145        0.624739  -0.000215
  146        0.791029  -0.000000
  147        0.819672  -0.000000
  148        0.914318  -0.000000
  149        0.974258  -0.000000
  150        0.994029  -0.000000
  151        1.009487  -0.000000
  152        1.072458  -0.000000
  153        1.087083  -0.000000
  154        1.172721  -0.000000
  155        1.223393  -0.000000
  156        1.259267  -0.000000
  157        1.272862  -0.000000
  158        1.293908  -0.000000
  159        1.325632  -0.000000
  160        1.375444  -0.000000
  161        1.384129  -0.000000
  162        1.417821  -0.000000
  163        1.430096  -0.000000
  164        1.464969  -0.000000
  165        1.568498  -0.000000
  166        1.575563  -0.000000
  167        1.594391  -0.000000
  168        1.629080  -0.000000
  169        1.675094  -0.000000
  170        1.731317  -0.000000
  171        1.815347  -0.000000
  172        1.872842  -0.000000
  173        1.938298  -0.000000
  174        2.201638  -0.000000
  175        2.431445  -0.000000
  176        2.565673  -0.000000

  0.2000000E+00  0.1262379E-14  0.1111111E+00  0.4444444E-01
    1      -13.963032   1.000000
    2      -13.249000   1.000000
    3      -12.744036   1.000000
    4      -12.352513   1.000000
    5      -12.070547   1.000000
    6      -12.020752   1.000000
    7      -11.727681   1.000000
    8      -11.365791   1.000000
    9      -11.349897   1.000000
   10      -11.219069   1.000000
   11      -11.161948   1.000000
   12      -11.131906   1.000000
   13      -10.888599   1.000000
   14      -10.606122   1.000000
   15      -10.573248   1.000000
   16      -10.550887   1.000000
   17      -10.511450   1.000000
   18       -9.822830   1.000000
   19       -9.692151   1.000000
   20       -9.587828   1.000000
   21       -9.529005   1.000000
   22       -9.479606   1.000000
   23       -9.401088   1.000000
   24       -9.345036   1.000000
   25       -9.046743   1.000000
   26       -8.829442   1.000000
   27       -8.314899   1.000000
   28       -8.289819   1.000000
   29       -8.158321   1.000000
   30       -8.114448   1.000000
   31       -8.062463   1.000000
   32       -7.920955   1.000000
   33       -7.711321   1.000000
   34       -7.552810   1.000000
   35       -7.352055   1.000000
   36       -7.226139   1.000000
   37       -7.104115   1.000000
   38       -6.968966   1.000000
   39       -6.902264   1.000000
   40       -6.737192   1.000000
   41       -6.655089   1.000000
   42       -6.581874   1.000000
   43       -6.551372   1.000000
   44       -6.504264   1.000000
   45       -6.466797   1.000000
   46       -6.349704   1.000000
   47       -6.133292   1.000000
   48       -6.120683   1.000000
   49       -6.001183   1.000000
   50       -5.870497   1.000000
   51       -5.764819   1.000000
   52       -5.707099   1.000000
   53       -5.673887   1.000000
   54       -5.499898   1.000000
   55       -5.368028   1.000000
   56       -5.321840   1.000000
   57       -5.282135   1.000000
   58       -5.222977   1.000000
   59       -5.197539   1.000000
   60       -5.161227   1.000000
   61       -5.088906   1.000000
   62       -5.009410   1.000000
   63       -4.794761   1.000000
   64       -4.687487   1.000000
   65       -4.568760   1.000000
   66       -4.555053   1.000000
   67       -4.433905   1.000000
   68       -4.385397   1.000000
   69       -4.161603   1.000000
   70       -4.148338   1.000000
   71       -4.117403   1.000000
   72       -4.059567   1.000000
   73       -4.035716   1.000000
   74       -4.030644   1.000000
   75       -3.982642   1.000000
   76       -3.948098   1.000000
   77       -3.896820   1.000000
   78       -3.795220   1.000000
   79       -3.775449   1.000000
   80       -3.766519   1.000000
   81       -3.747521   1.000000
   82       -3.718328   1.000000
   83       -3.670463   1.000000
   84       -3.656097   1.000000
   85       -3.602544   1.000000
   86       -3.571946   1.000000
   87       -3.521347   1.000000
   88       -3.501083   1.000000
   89       -3.445375   1.000000
   90       -3.344733   1.000000
   91       -3.310831   1.000000
   92       -3.261371   1.000000
   93       -2.974218   1.000000
   94       -2.938760   1.000000
   95       -2.896406   1.000000
   96       -2.845900   1.000000
   97       -2.816817   1.000000
   98       -2.682513   1.000000
   99       -2.629610   1.000000
  100       -2.508776   1.000000
  101       -2.370128   1.000000
  102       -2.339272   1.000000
  103       -2.273914   1.000000
  104       -2.223858   1.000000
  105       -2.165800   1.000000
  106       -2.040210   1.000000
  107       -2.028406   1.000000
  108       -1.997241   1.000000
  109       -1.975487   1.000000
  110       -1.918172   1.000000
  111       -1.860107   1.000000
  112       -1.776911   1.000000
  113       -1.699415   1.000000
  114       -1.652709   1.000000
  115       -1.602294   1.000000
  116       -1.529105   1.000000
  117       -1.504003   1.000000
  118       -1.411125   1.000000
  119       -1.381809   1.000000
  120       -1.290073   1.000000
  121       -1.127230   1.000000
  122       -0.982069   1.000000
  123       -0.898050   1.000000
  124       -0.843337   1.000000
  125       -0.769580   1.000000
  126       -0.673481   1.000000
  127       -0.637013   1.000000
  128       -0.604194   1.000000
  129       -0.385590   1.000000
  130       -0.331636   1.000000
  131       -0.155578   1.000000
  132       -0.030704   1.000001
  133        0.071419   1.000482
  134        0.136119   1.007008
  135        0.160801   1.014691
  136        0.170514   1.018715
  137        0.231598   1.031866
  138        0.355238   0.373749
  139        0.369593   0.262257
  140        0.446051  -0.030231
  141        0.510971  -0.018182
  142        0.541809  -0.007570
  143        0.605975  -0.000554
  144        0.637549  -0.000108
  145        0.653551  -0.000043
  146        0.778323  -0.000000
  147        0.870661  -0.000000
  148        0.898108  -0.000000
  149        0.991024  -0.000000
  150        1.014571  -0.000000
  151        1.032140  -0.000000
  152        1.046299  -0.000000
  153        1.174931  -0.000000
  154        1.249745  -0.000000
  155        1.293613  -0.000000
  156        1.321553  -0.000000
  157        1.328892  -0.000000
  158        1.350069  -0.000000
  159        1.358893  -0.000000
  160        1.373841  -0.000000
  161        1.402069  -0.000000
  162        1.413220  -0.000000
  163        1.433937  -0.000000
  164        1.509301  -0.000000
  165        1.531453  -0.000000
  166        1.574392  -0.000000
  167        1.576969  -0.000000
  168        1.642808  -0.000000
  169        1.665894  -0.000000
  170        1.717958  -0.000000
  171        1.784992  -0.000000
  172        1.831970  -0.000000
  173        1.926583  -0.000000
  174        1.954458  -0.000000
  175        2.162693  -0.000000
  176        2.425483  -0.000000

  0.4000000E+00  0.1262379E-14  0.1111111E+00  0.4444444E-01
    1      -13.817185   1.000000
    2      -13.577565   1.000000
    3      -12.607382   1.000000
    4      -12.380685   1.000000
    5      -11.963908   1.000000
    6      -11.881023   1.000000
    7      -11.783324   1.000000
    8      -11.322054   1.000000
    9      -11.260190   1.000000
   10      -11.193902   1.000000
   11      -11.084927   1.000000