 running on   72 total cores
 distrk:  each k-point on   72 cores,    1 groups
 distr:  one band on    9 cores,    8 groups
 using from now: INCAR     
 vasp.5.4.4.18Apr17-6-g9f103f2a35 (build Dec  7 2020 12:43:57) complex           
 POSCAR found type information on POSCAR  Mo V  B  H 
 POSCAR found :  4 types and      73 ions
 scaLAPACK will be used

 ----------------------------------------------------------------------------- 
|                                                                             |
|  ADVICE TO THIS USER RUNNING 'VASP/VAMP'   (HEAR YOUR MASTER'S VOICE ...):  |
|                                                                             |
|      You enforced a specific xc-type in the INCAR file,                     |
|      a different type was found on the POTCAR file                          |
|          I HOPE YOU KNOW, WHAT YOU ARE  DOING                               |
|                                                                             |
 ----------------------------------------------------------------------------- 

 LDA part: xc-table for Pade appr. of Perdew
 POSCAR, INCAR and KPOINTS ok, starting setup
 resort distribution
 resort distribution
 resort distribution
 resort distribution
 resort distribution
 resort distribution
 resort distribution
 resort distribution
 resort distribution
 resort distribution
 resort distribution
 resort distribution
 resort distribution
 resort distribution
 resort distribution
 resort distribution
 resort distribution
 resort distribution
 resort distribution
 resort distribution
 resort distribution
 resort distribution
 resort distribution
 resort distribution
 resort distribution
 resort distribution
 resort distribution
 resort distribution
 resort distribution
 resort distribution
 resort distribution
 resort distribution
 resort distribution
 resort distribution
 resort distribution
 resort distribution
 resort distribution
 resort distribution
 resort distribution
 resort distribution
 resort distribution
 resort distribution
 resort distribution
 resort distribution
 resort distribution
 resort distribution
 resort distribution
 resort distribution
 resort distribution
 resort distribution
 resort distribution
 resort distribution
 resort distribution
 resort distribution
 resort distribution
 resort distribution
 resort distribution
 resort distribution
 resort distribution
 resort distribution
 resort distribution
 resort distribution
 resort distribution
 resort distribution
 resort distribution
 resort distribution
 resort distribution
 resort distribution
 resort distribution
 resort distribution
 resort distribution
 resort distribution
 FFT: planning ...
 WAVECAR not read
 augmentation electrons   277.02612166885581     
 soft         electrons   0.0000000000000000     
 augmentation electrons   277.02612166885581     
 soft         electrons   0.0000000000000000     
 augmentation electrons   277.02612166885581     
 soft         electrons   0.0000000000000000     
 augmentation electrons   277.02612166885581     
 soft         electrons   0.0000000000000000     
 augmentation electrons   277.02612166885581     
 soft         electrons   0.0000000000000000     
 augmentation electrons   277.02612166885581     
 soft         electrons   0.0000000000000000     
 augmentation electrons   277.02612166885581     
 soft         electrons   0.0000000000000000     
 augmentation electrons   277.02612166885581     
 soft         electrons   0.0000000000000000     
 augmentation electrons   277.02612166885581     
 soft         electrons   0.0000000000000000     
 augmentation electrons   277.02612166885581     
 soft         electrons   0.0000000000000000     
 augmentation electrons   277.02612166885581     
 soft         electrons   0.0000000000000000     
 augmentation electrons   277.02612166885581     
 soft         electrons   0.0000000000000000     
 augmentation electrons   277.02612166885581     
 soft         electrons   0.0000000000000000     
 augmentation electrons   277.02612166885581     
 soft         electrons   0.0000000000000000     
 augmentation electrons   277.02612166885581     
 soft         electrons   0.0000000000000000     
 augmentation electrons   277.02612166885581     
 soft         electrons   0.0000000000000000     
 augmentation electrons   277.02612166885581     
 soft         electrons   0.0000000000000000     
 augmentation electrons   277.02612166885581     
 soft         electrons   0.0000000000000000     
 augmentation electrons   277.02612166885581     
 soft         electrons   0.0000000000000000     
 augmentation electrons   277.02612166885581     
 soft         electrons   0.0000000000000000     
 augmentation electrons   277.02612166885581     
 soft         electrons   0.0000000000000000     
 augmentation electrons   277.02612166885581     
 soft         electrons   0.0000000000000000     
 augmentation electrons   277.02612166885581     
 soft         electrons   0.0000000000000000     
 augmentation electrons   277.02612166885581     
 soft         electrons   0.0000000000000000     
 augmentation electrons   277.02612166885581     
 soft         electrons   0.0000000000000000     
 augmentation electrons   277.02612166885581     
 soft         electrons   0.0000000000000000     
 augmentation electrons   277.02612166885581     
 soft         electrons   0.0000000000000000     
 augmentation electrons   277.02612166885581     
 soft         electrons   0.0000000000000000     
 augmentation electrons   277.02612166885581     
 soft         electrons   0.0000000000000000     
 augmentation electrons   277.02612166885581     
 soft         electrons   0.0000000000000000     
 augmentation electrons   277.02612166885581     
 soft         electrons   0.0000000000000000     
 augmentation electrons   277.02612166885581     
 soft         electrons   0.0000000000000000     
 augmentation electrons   277.02612166885581     
 soft         electrons   0.0000000000000000     
 augmentation electrons   277.02612166885581     
 soft         electrons   0.0000000000000000     
 augmentation electrons   277.02612166885581     
 soft         electrons   0.0000000000000000     
 augmentation electrons   277.02612166885581     
 soft         electrons   0.0000000000000000     
 augmentation electrons   277.02612166885581     
 soft         electrons   0.0000000000000000     
 augmentation electrons   277.02612166885581     
 soft         electrons   0.0000000000000000     
 augmentation electrons   277.02612166885581     
 soft         electrons   0.0000000000000000     
 augmentation electrons   277.02612166885581     
 soft         electrons   0.0000000000000000     
 augmentation electrons   277.02612166885581     
 soft         electrons   0.0000000000000000     
 augmentation electrons   277.02612166885581     
 soft         electrons   0.0000000000000000     
 augmentation electrons   277.02612166885581     
 soft         electrons   0.0000000000000000     
 augmentation electrons   277.02612166885581     
 soft         electrons   0.0000000000000000     
 augmentation electrons   277.02612166885581     
 soft         electrons   0.0000000000000000     
 augmentation electrons   277.02612166885581     
 soft         electrons   0.0000000000000000     
 augmentation electrons   277.02612166885581     
 soft         electrons   0.0000000000000000     
 augmentation electrons   277.02612166885581     
 soft         electrons   0.0000000000000000     
 augmentation electrons   277.02612166885581     
 soft         electrons   0.0000000000000000     
 augmentation electrons   277.02612166885581     
 soft         electrons   0.0000000000000000     
 augmentation electrons   277.02612166885581     
 soft         electrons   0.0000000000000000     
 augmentation electrons   277.02612166885581     
 soft         electrons   0.0000000000000000     
 augmentation electrons   277.02612166885581     
 soft         electrons   0.0000000000000000     
 augmentation electrons   277.02612166885581     
 soft         electrons   0.0000000000000000     
 augmentation electrons   277.02612166885581     
 soft         electrons   0.0000000000000000     
 augmentation electrons   277.02612166885581     
 soft         electrons   0.0000000000000000     
 augmentation electrons   277.02612166885581     
 soft         electrons   0.0000000000000000     
 augmentation electrons   277.02612166885581     
 soft         electrons   0.0000000000000000     
 augmentation electrons   277.02612166885581     
 soft         electrons   0.0000000000000000     
 augmentation electrons   277.02612166885581     
 soft         electrons   0.0000000000000000     
 augmentation electrons   277.02612166885581     
 soft         electrons   0.0000000000000000     
 augmentation electrons   277.02612166885581     
 soft         electrons   0.0000000000000000     
 augmentation electrons   277.02612166885581     
 soft         electrons   0.0000000000000000     
 augmentation electrons   277.02612166885581     
 soft         electrons   0.0000000000000000     
 augmentation electrons   277.02612166885581     
 soft         electrons   0.0000000000000000     
 augmentation electrons   277.02612166885581     
 soft         electrons   0.0000000000000000     
 augmentation electrons   277.02612166885581     
 soft         electrons   0.0000000000000000     
 augmentation electrons   277.02612166885581     
 soft         electrons   0.0000000000000000     
 augmentation electrons   277.02612166885581     
 soft         electrons   0.0000000000000000     
 augmentation electrons   277.02612166885581     
 soft         electrons   0.0000000000000000     
 augmentation electrons   277.02612166885581     
 soft         electrons   0.0000000000000000     
 augmentation electrons   277.02612166885581     
 soft         electrons   0.0000000000000000     
 total        electrons   277.02612166885581     
 total        electrons   277.02612166885581     
 total        electrons   277.02612166885581     
 total        electrons   277.02612166885581     
 total        electrons   277.02612166885581     
 total        electrons   277.02612166885581     
 total        electrons   277.02612166885581     
 total        electrons   277.02612166885581     
 total        electrons   277.02612166885581     
 total        electrons   277.02612166885581     
 total        electrons   277.02612166885581     
 total        electrons   277.02612166885581     
 total        electrons   277.02612166885581     
 total        electrons   277.02612166885581     
 total        electrons   277.02612166885581     
 total        electrons   277.02612166885581     
 total        electrons   277.02612166885581     
 total        electrons   277.02612166885581     
 total        electrons   277.02612166885581     
 total        electrons   277.02612166885581     
 total        electrons   277.02612166885581     
 total        electrons   277.02612166885581     
 total        electrons   277.02612166885581     
 total        electrons   277.02612166885581     
 total        electrons   277.02612166885581     
 total        electrons   277.02612166885581     
 total        electrons   277.02612166885581     
 total        electrons   277.02612166885581     
 total        electrons   277.02612166885581     
 total        electrons   277.02612166885581     
 total        electrons   277.02612166885581     
 total        electrons   277.02612166885581     
 total        electrons   277.02612166885581     
 total        electrons   277.02612166885581     
 total        electrons   277.02612166885581     
 total        electrons   277.02612166885581     
 total        electrons   277.02612166885581     
 total        electrons   277.02612166885581     
 total        electrons   277.02612166885581     
 total        electrons   277.02612166885581     
 total        electrons   277.02612166885581     
 total        electrons   277.02612166885581     
 total        electrons   277.02612166885581     
 total        electrons   277.02612166885581     
 total        electrons   277.02612166885581     
 total        electrons   277.02612166885581     
 total        electrons   277.02612166885581     
 total        electrons   277.02612166885581     
 total        electrons   277.02612166885581     
 total        electrons   277.02612166885581     
 total        electrons   277.02612166885581     
 total        electrons   277.02612166885581     
 total        electrons   277.02612166885581     
 total        electrons   277.02612166885581     
 total        electrons   277.02612166885581     
 total        electrons   277.02612166885581     
 total        electrons   277.02612166885581     
 total        electrons   277.02612166885581     
 total        electrons   277.02612166885581     
 total        electrons   277.02612166885581     
 total        electrons   277.02612166885581     
 total        electrons   277.02612166885581     
 total        electrons   277.02612166885581     
 total        electrons   277.02612166885581     
 total        electrons   277.02612166885581     
 total        electrons   277.02612166885581     
 total        electrons   277.02612166885581     
 total        electrons   277.02612166885581     
 total        electrons   277.02612166885581     
 total        electrons   277.02612166885581     
 total        electrons   277.02612166885581     
 total        electrons   277.02612166885581     
 augmentation electrons   864.17172981569820     
 soft         electrons   0.0000000000000000     
 augmentation electrons   864.17172981569820     
 soft         electrons   0.0000000000000000     
 total        electrons   864.17172981569820     
 augmentation electrons   864.17172981569820     
 soft         electrons   0.0000000000000000     
 augmentation electrons   864.17172981569820     
 soft         electrons   0.0000000000000000     
 total        electrons   864.17172981569820     
 augmentation electrons   864.17172981569820     
 soft         electrons   0.0000000000000000     
 total        electrons   864.17172981569820     
 augmentation electrons   864.17172981569820     
 soft         electrons   0.0000000000000000     
 augmentation electrons   864.17172981569820     
 soft         electrons   0.0000000000000000     
 total        electrons   864.17172981569820     
 augmentation electrons   864.17172981569820     
 soft         electrons   0.0000000000000000     
 total        electrons   864.17172981569820     
 augmentation electrons   864.17172981569820     
 soft         electrons   0.0000000000000000     
 total        electrons   864.17172981569820     
 augmentation electrons   864.17172981569820     
 soft         electrons   0.0000000000000000     
 augmentation electrons   864.17172981569820     
 soft         electrons   0.0000000000000000     
 total        electrons   864.17172981569820     
 augmentation electrons   864.17172981569820     
 soft         electrons   0.0000000000000000     
 augmentation electrons   864.17172981569820     
 soft         electrons   0.0000000000000000     
 total        electrons   864.17172981569820     
 augmentation electrons   864.17172981569820     
 soft         electrons   0.0000000000000000     
 total        electrons   864.17172981569820     
 augmentation electrons   864.17172981569820     
 soft         electrons   0.0000000000000000     
 augmentation electrons   864.17172981569820     
 soft         electrons   0.0000000000000000     
 augmentation electrons   864.17172981569820     
 soft         electrons   0.0000000000000000     
 augmentation electrons   864.17172981569820     
 soft         electrons   0.0000000000000000     
 augmentation electrons   864.17172981569820     
 soft         electrons   0.0000000000000000     
 total        electrons   864.17172981569820     
 augmentation electrons   864.17172981569820     
 soft         electrons   0.0000000000000000     
 total        electrons   864.17172981569820     
 augmentation electrons   864.17172981569820     
 soft         electrons   0.0000000000000000     
 total        electrons   864.17172981569820     
 augmentation electrons   864.17172981569820     
 soft         electrons   0.0000000000000000     
 total        electrons   864.17172981569820     
 augmentation electrons   864.17172981569820     
 soft         electrons   0.0000000000000000     
 total        electrons   864.17172981569820     
 augmentation electrons   864.17172981569820     
 soft         electrons   0.0000000000000000     
 total        electrons   864.17172981569820     
 augmentation electrons   864.17172981569820     
 soft         electrons   0.0000000000000000     
 total        electrons   864.17172981569820     
 augmentation electrons   864.17172981569820     
 soft         electrons   0.0000000000000000     
 augmentation electrons   864.17172981569820     
 soft         electrons   0.0000000000000000     
 augmentation electrons   864.17172981569820     
 soft         electrons   0.0000000000000000     
 total        electrons   864.17172981569820     
 augmentation electrons   864.17172981569820     
 soft         electrons   0.0000000000000000     
 augmentation electrons   864.17172981569820     
 soft         electrons   0.0000000000000000     
 augmentation electrons   864.17172981569820     
 soft         electrons   0.0000000000000000     
 augmentation electrons   864.17172981569820     
 soft         electrons   0.0000000000000000     
 augmentation electrons   864.17172981569820     
 soft         electrons   0.0000000000000000     
 total        electrons   864.17172981569820     
 augmentation electrons   864.17172981569820     
 soft         electrons   0.0000000000000000     
 augmentation electrons   864.17172981569820     
 soft         electrons   0.0000000000000000     
 augmentation electrons   864.17172981569820     
 soft         electrons   0.0000000000000000     
 total        electrons   864.17172981569820     
 augmentation electrons   864.17172981569820     
 soft         electrons   0.0000000000000000     
 augmentation electrons   864.17172981569820     
 soft         electrons   0.0000000000000000     
 total        electrons   864.17172981569820     
 augmentation electrons   864.17172981569820     
 soft         electrons   0.0000000000000000     
 total        electrons   864.17172981569820     
 augmentation electrons   864.17172981569820     
 soft         electrons   0.0000000000000000     
 total        electrons   864.17172981569820     
 augmentation electrons   864.17172981569820     
 soft         electrons   0.0000000000000000     
 augmentation electrons   864.17172981569820     
 soft         electrons   0.0000000000000000     
 augmentation electrons   864.17172981569820     
 soft         electrons   0.0000000000000000     
 augmentation electrons   864.17172981569820     
 soft         electrons   0.0000000000000000     
 augmentation electrons   864.17172981569820     
 soft         electrons   0.0000000000000000     
 total        electrons   864.17172981569820     
 augmentation electrons   864.17172981569820     
 soft         electrons   0.0000000000000000     
 total        electrons   864.17172981569820     
 augmentation electrons   864.17172981569820     
 soft         electrons   0.0000000000000000     
 total        electrons   864.17172981569820     
 augmentation electrons   864.17172981569820     
 soft         electrons   0.0000000000000000     
 total        electrons   864.17172981569820     
 augmentation electrons   864.17172981569820     
 soft         electrons   0.0000000000000000     
 augmentation electrons   864.17172981569820     
 soft         electrons   0.0000000000000000     
 augmentation electrons   864.17172981569820     
 soft         electrons   0.0000000000000000     
 total        electrons   864.17172981569820     
 augmentation electrons   864.17172981569820     
 soft         electrons   0.0000000000000000     
 total        electrons   864.17172981569820     
 augmentation electrons   864.17172981569820     
 soft         electrons   0.0000000000000000     
 total        electrons   864.17172981569820     
 augmentation electrons   864.17172981569820     
 soft         electrons   0.0000000000000000     
 total        electrons   864.17172981569820     
 augmentation electrons   864.17172981569820     
 soft         electrons   0.0000000000000000     
 total        electrons   864.17172981569820     
 augmentation electrons   864.17172981569820     
 soft         electrons   0.0000000000000000     
 augmentation electrons   864.17172981569820     
 soft         electrons   0.0000000000000000     
 total        electrons   864.17172981569820     
 augmentation electrons   864.17172981569820     
 soft         electrons   0.0000000000000000     
 augmentation electrons   864.17172981569820     
 soft         electrons   0.0000000000000000     
 augmentation electrons   864.17172981569820     
 soft         electrons   0.0000000000000000     
 augmentation electrons   864.17172981569820     
 soft         electrons   0.0000000000000000     
 augmentation electrons   864.17172981569820     
 soft         electrons   0.0000000000000000     
 total        electrons   864.17172981569820     
 augmentation electrons   864.17172981569820     
 soft         electrons   0.0000000000000000     
 total        electrons   864.17172981569820     
 augmentation electrons   864.17172981569820     
 soft         electrons   0.0000000000000000     
 augmentation electrons   864.17172981569820     
 soft         electrons   0.0000000000000000     
 augmentation electrons   864.17172981569820     
 soft         electrons   0.0000000000000000     
 augmentation electrons   864.17172981569820     
 soft         electrons   0.0000000000000000     
 augmentation electrons   864.17172981569820     
 soft         electrons   0.0000000000000000     
 total        electrons   864.17172981569820     
 augmentation electrons   864.17172981569820     
 soft         electrons   0.0000000000000000     
 augmentation electrons   864.17172981569820     
 soft         electrons   0.0000000000000000     
 total        electrons   864.17172981569820     
 augmentation electrons   864.17172981569820     
 soft         electrons   0.0000000000000000     
 augmentation electrons   864.17172981569820     
 soft         electrons   0.0000000000000000     
 total        electrons   864.17172981569820     
 total        electrons   864.17172981569820     
 total        electrons   864.17172981569820     
 total        electrons   864.17172981569820     
 total        electrons   864.17172981569820     
 total        electrons   864.17172981569820     
 total        electrons   864.17172981569820     
 total        electrons   864.17172981569820     
 total        electrons   864.17172981569820     
 total        electrons   864.17172981569820     
 total        electrons   864.17172981569820     
 total        electrons   864.17172981569820     
 total        electrons   864.17172981569820     
 total        electrons   864.17172981569820     
 total        electrons   864.17172981569820     
 total        electrons   864.17172981569820     
 total        electrons   864.17172981569820     
 total        electrons   864.17172981569820     
 total        electrons   864.17172981569820     
 total        electrons   864.17172981569820     
 total        electrons   864.17172981569820     
 total        electrons   864.17172981569820     
 total        electrons   864.17172981569820     
 total        electrons   864.17172981569820     
 total        electrons   864.17172981569820     
 total        electrons   864.17172981569820     
 total        electrons   864.17172981569820     
 total        electrons   864.17172981569820     
 total        electrons   864.17172981569820     
 total        electrons   864.17172981569820     
 total        electrons   864.17172981569820     
 total        electrons   864.17172981569820     
 total        electrons   864.17172981569820     
 total        electrons   864.17172981569820     
 total        electrons   864.17172981569820     
 total        electrons   864.17172981569820     
 entering main loop
       N       E                     dE             d eps       ncg     rms          rms(c)
DAV:   1     0.310168831123E+04    0.31017E+04   -0.94592E+04  8096   0.132E+03
DAV:   2     0.134179431990E+03   -0.29675E+04   -0.27606E+04  8576   0.343E+02
DAV:   3    -0.596412387803E+03   -0.73059E+03   -0.70367E+03 11528   0.204E+02
DAV:   4    -0.670259436864E+03   -0.73847E+02   -0.70674E+02 13240   0.725E+01
DAV:   5    -0.674618689024E+03   -0.43593E+01   -0.41156E+01 13464   0.179E+01    0.141E+02
RMM:   6    -0.612289617529E+03    0.62329E+02   -0.14289E+03 11192   0.117E+02    0.692E+01
RMM:   7    -0.639243158642E+03   -0.26954E+02   -0.79909E+02  9467   0.114E+02    0.552E+01
RMM:   8    -0.564902508176E+03    0.74341E+02   -0.10025E+02  8552   0.385E+01    0.250E+01
RMM:   9    -0.571865950015E+03   -0.69634E+01   -0.83213E+01 10809   0.241E+01    0.261E+01
RMM:  10    -0.553970065615E+03    0.17896E+02   -0.17310E+01 10556   0.118E+01    0.162E+01
RMM:  11    -0.554660354538E+03   -0.69029E+00   -0.70877E+00 11950   0.425E+00    0.146E+01
RMM:  12    -0.554446426929E+03    0.21393E+00   -0.98621E-01 11251   0.242E+00    0.134E+01
RMM:  13    -0.554120535738E+03    0.32589E+00   -0.26672E+00 11364   0.448E+00    0.100E+01
RMM:  14    -0.554481305416E+03   -0.36077E+00   -0.49374E+00  9586   0.746E+00    0.853E+00
RMM:  15    -0.553550371541E+03    0.93093E+00   -0.13793E+00  8663   0.459E+00    0.368E+00
RMM:  16    -0.553470621512E+03    0.79750E-01   -0.68442E-01 10579   0.235E+00    0.283E+00
RMM:  17    -0.553439037348E+03    0.31584E-01   -0.52545E-01 12262   0.148E+00    0.221E+00
RMM:  18    -0.553410197251E+03    0.28840E-01   -0.11260E-01 10919   0.880E-01    0.156E+00
RMM:  19    -0.553397411242E+03    0.12786E-01   -0.10968E-01 11878   0.730E-01    0.109E+00
RMM:  20    -0.553382520840E+03    0.14890E-01   -0.77199E-02 10610   0.771E-01    0.972E-01
RMM:  21    -0.553377630964E+03    0.48899E-02   -0.43731E-02 10080   0.556E-01    0.905E-01
RMM:  22    -0.553371280062E+03    0.63509E-02   -0.16256E-02 10424   0.372E-01    0.601E-01
RMM:  23    -0.553369238911E+03    0.20412E-02   -0.22901E-02 12702   0.269E-01    0.284E-01
RMM:  24    -0.553367952309E+03    0.12866E-02   -0.83228E-03 11663   0.239E-01    0.240E-01
RMM:  25    -0.553366216601E+03    0.17357E-02   -0.36238E-03 12655   0.113E-01    0.190E-01
RMM:  26    -0.553365500656E+03    0.71594E-03   -0.35083E-03 12327   0.130E-01    0.120E-01
RMM:  27    -0.553365644607E+03   -0.14395E-03   -0.11245E-03 11460   0.887E-02    0.972E-02
RMM:  28    -0.553365948676E+03   -0.30407E-03   -0.43279E-04 10813   0.566E-02    0.833E-02
RMM:  29    -0.553366398714E+03   -0.45004E-03   -0.27563E-04 10641   0.410E-02    0.478E-02
RMM:  30    -0.553366997797E+03   -0.59908E-03   -0.41753E-04 11565   0.410E-02    0.380E-02
RMM:  31    -0.553367151958E+03   -0.15416E-03   -0.16201E-04 11544   0.293E-02    0.374E-02
RMM:  32    -0.553367313348E+03   -0.16139E-03   -0.97865E-05 11395   0.179E-02    0.361E-02
RMM:  33    -0.553367414928E+03   -0.10158E-03   -0.84215E-05 12288   0.171E-02    0.122E-02
RMM:  34    -0.553367460731E+03   -0.45803E-04   -0.28193E-05 10428   0.111E-02    0.104E-02
RMM:  35    -0.553367504759E+03   -0.44027E-04   -0.15853E-05  8601   0.892E-03    0.865E-03
RMM:  36    -0.553367609527E+03   -0.10477E-03   -0.10141E-05  7645   0.616E-03    0.581E-03
RMM:  37    -0.553367728278E+03   -0.11875E-03   -0.72811E-06  7330   0.520E-03    0.583E-03
RMM:  38    -0.553367838109E+03   -0.10983E-03   -0.92430E-06  7590   0.451E-03    0.524E-03
RMM:  39    -0.553367878576E+03   -0.40467E-04   -0.33197E-06  6851   0.451E-03    0.400E-03
RMM:  40    -0.553367925238E+03   -0.46662E-04   -0.40285E-06  6892   0.349E-03    0.206E-03
RMM:  41    -0.553367939944E+03   -0.14706E-04   -0.12404E-06  6229   0.297E-03    0.130E-03
RMM:  42    -0.553367953681E+03   -0.13737E-04   -0.12322E-06  6184   0.206E-03    0.101E-03
RMM:  43    -0.553367960654E+03   -0.69734E-05   -0.51325E-07  5758   0.202E-03    0.780E-04
RMM:  44    -0.553367966977E+03   -0.63226E-05   -0.51081E-07  4953   0.125E-03    0.413E-04
RMM:  45    -0.553367970527E+03   -0.35502E-05   -0.37711E-07  4732   0.136E-03    0.339E-04
RMM:  46    -0.553367971680E+03   -0.11526E-05   -0.21867E-07  3748   0.101E-03    0.161E-04
RMM:  47    -0.553367972095E+03   -0.41482E-06   -0.12374E-07  3574   0.905E-04
   1 F= -.55336797E+03 E0= -.55336968E+03  d E =0.513635E-02
 augmentation electrons   35.539979043538807     
 soft         electrons   241.55562963267175     
 total        electrons   277.09560867621053     
 augmentation electrons   35.539979043538807     
 soft         electrons   241.55562963267175     
 total        electrons   277.09560867621053     
 augmentation electrons   35.539979043538807     
 soft         electrons   241.55562963267175     
 total        electrons   277.09560867621053     
 augmentation electrons   35.539979043538807     
 soft         electrons   241.55562963267175     
 total        electrons   277.09560867621053     
 augmentation electrons   35.539979043538807     
 soft         electrons   241.55562963267175     
 total        electrons   277.09560867621053     
 augmentation electrons   35.539979043538807     
 soft         electrons   241.55562963267175     
 total        electrons   277.09560867621053     
 augmentation electrons   35.539979043538807     
 soft         electrons   241.55562963267175     
 total        electrons   277.09560867621053     
 augmentation electrons   35.539979043538807     
 soft         electrons   241.55562963267175     
 total        electrons   277.09560867621053     
 augmentation electrons   35.539979043538807     
 soft         electrons   241.55562963267175     
 total        electrons   277.09560867621053     
 augmentation electrons   35.539979043538807     
 soft         electrons   241.55562963267175     
 total        electrons   277.09560867621053     
 augmentation electrons   35.539979043538807     
 soft         electrons   241.55562963267175     
 total        electrons   277.09560867621053     
 augmentation electrons   35.539979043538807     
 soft         electrons   241.55562963267175     
 total        electrons   277.09560867621053     
 augmentation electrons   35.539979043538807     
 soft         electrons   241.55562963267175     
 total        electrons   277.09560867621053     
 augmentation electrons   35.539979043538807     
 soft         electrons   241.55562963267175     
 total        electrons   277.09560867621053     
 augmentation electrons   35.539979043538807     
 soft         electrons   241.55562963267175     
 total        electrons   277.09560867621053     
 augmentation electrons   35.539979043538807     
 soft         electrons   241.55562963267175     
 total        electrons   277.09560867621053     
 augmentation electrons   35.539979043538807     
 soft         electrons   241.55562963267175     
 total        electrons   277.09560867621053     
 augmentation electrons   35.539979043538807     
 soft         electrons   241.55562963267175     
 total        electrons   277.09560867621053     
 augmentation electrons   35.539979043538807     
 soft         electrons   241.55562963267175     
 total        electrons   277.09560867621053     
 augmentation electrons   35.539979043538807     
 soft         electrons   241.55562963267175     
 total        electrons   277.09560867621053     
 augmentation electrons   35.539979043538807     
 soft         electrons   241.55562963267175     
 total        electrons   277.09560867621053     
 augmentation electrons   35.539979043538807     
 soft         electrons   241.55562963267175     
 total        electrons   277.09560867621053     
 augmentation electrons   35.539979043538807     
 soft         electrons   241.55562963267175     
 total        electrons   277.09560867621053     
 augmentation electrons   35.539979043538807     
 soft         electrons   241.55562963267175     
 total        electrons   277.09560867621053     
 augmentation electrons   35.539979043538807     
 soft         electrons   241.55562963267175     
 total        electrons   277.09560867621053     
 augmentation electrons   35.539979043538807     
 soft         electrons   241.55562963267175     
 total        electrons   277.09560867621053     
 augmentation electrons   35.539979043538807     
 soft         electrons   241.55562963267175     
 total        electrons   277.09560867621053     
 augmentation electrons   35.539979043538807     
 soft         electrons   241.55562963267175     
 total        electrons   277.09560867621053     
 augmentation electrons   35.539979043538807     
 soft         electrons   241.55562963267175     
 total        electrons   277.09560867621053     
 augmentation electrons   35.539979043538807     
 soft         electrons   241.55562963267175     
 total        electrons   277.09560867621053     
 augmentation electrons   35.539979043538807     
 soft         electrons   241.55562963267175     
 total        electrons   277.09560867621053     
 augmentation electrons   35.539979043538807     
 soft         electrons   241.55562963267175     
 total        electrons   277.09560867621053     
 augmentation electrons   35.539979043538807     
 soft         electrons   241.55562963267175     
 total        electrons   277.09560867621053     
 augmentation electrons   35.539979043538807     
 soft         electrons   241.55562963267175     
 total        electrons   277.09560867621053     
 augmentation electrons   35.539979043538807     
 soft         electrons   241.55562963267175     
 total        electrons   277.09560867621053     
 augmentation electrons   35.539979043538807     
 soft         electrons   241.55562963267175     
 total        electrons   277.09560867621053     
 augmentation electrons   35.539979043538807     
 soft         electrons   241.55562963267175     
 total        electrons   277.09560867621053     
 augmentation electrons   35.539979043538807     
 soft         electrons   241.55562963267175     
 total        electrons   277.09560867621053     
 augmentation electrons   35.539979043538807     
 soft         electrons   241.55562963267175     
 total        electrons   277.09560867621053     
 augmentation electrons   35.539979043538807     
 soft         electrons   241.55562963267175     
 total        electrons   277.09560867621053     
 augmentation electrons   35.539979043538807     
 soft         electrons   241.55562963267175     
 total        electrons   277.09560867621053     
 augmentation electrons   35.539979043538807     
 soft         electrons   241.55562963267175     
 total        electrons   277.09560867621053     
 augmentation electrons   35.539979043538807     
 soft         electrons   241.55562963267175     
 total        electrons   277.09560867621053     
 augmentation electrons   35.539979043538807     
 soft         electrons   241.55562963267175     
 total        electrons   277.09560867621053     
 augmentation electrons   35.539979043538807     
 soft         electrons   241.55562963267175     
 total        electrons   277.09560867621053     
 augmentation electrons   35.539979043538807     
 soft         electrons   241.55562963267175     
 total        electrons   277.09560867621053     
 augmentation electrons   35.539979043538807     
 soft         electrons   241.55562963267175     
 total        electrons   277.09560867621053     
 augmentation electrons   35.539979043538807     
 soft         electrons   241.55562963267175     
 total        electrons   277.09560867621053     
 augmentation electrons   35.539979043538807     
 soft         electrons   241.55562963267175     
 total        electrons   277.09560867621053     
 augmentation electrons   35.539979043538807     
 soft         electrons   241.55562963267175     
 total        electrons   277.09560867621053     
 augmentation electrons   35.539979043538807     
 soft         electrons   241.55562963267175     
 total        electrons   277.09560867621053     
 augmentation electrons   35.539979043538807     
 soft         electrons   241.55562963267175     
 total        electrons   277.09560867621053     
 augmentation electrons   35.539979043538807     
 soft         electrons   241.55562963267175     
 total        electrons   277.09560867621053     
 augmentation electrons   35.539979043538807     
 soft         electrons   241.55562963267175     
 total        electrons   277.09560867621053     
 augmentation electrons   35.539979043538807     
 soft         electrons   241.55562963267175     
 total        electrons   277.09560867621053     
 augmentation electrons   35.539979043538807     
 soft         electrons   241.55562963267175     
 total        electrons   277.09560867621053     
 augmentation electrons   35.539979043538807     
 soft         electrons   241.55562963267175     
 total        electrons   277.09560867621053     
 augmentation electrons   35.539979043538807     
 soft         electrons   241.55562963267175     
 total        electrons   277.09560867621053     
 augmentation electrons   35.539979043538807     
 soft         electrons   241.55562963267175     
 total        electrons   277.09560867621053     
 augmentation electrons   35.539979043538807     
 soft         electrons   241.55562963267175     
 total        electrons   277.09560867621053     
 augmentation electrons   35.539979043538807     
 soft         electrons   241.55562963267175     
 total        electrons   277.09560867621053     
 augmentation electrons   35.539979043538807     
 soft         electrons   241.55562963267175     
 total        electrons   277.09560867621053     
 augmentation electrons   35.539979043538807     
 soft         electrons   241.55562963267175     
 total        electrons   277.09560867621053     
 augmentation electrons   35.539979043538807     
 soft         electrons   241.55562963267175     
 total        electrons   277.09560867621053     
 augmentation electrons   35.539979043538807     
 soft         electrons   241.55562963267175     
 total        electrons   277.09560867621053     
 augmentation electrons   35.539979043538807     
 soft         electrons   241.55562963267175     
 total        electrons   277.09560867621053     
 augmentation electrons   35.539979043538807     
 soft         electrons   241.55562963267175     
 total        electrons   277.09560867621053     
 augmentation electrons   35.539979043538807     
 soft         electrons   241.55562963267175     
 total        electrons   277.09560867621053     
 augmentation electrons   35.539979043538807     
 soft         electrons   241.55562963267175     
 total        electrons   277.09560867621053     
 augmentation electrons   35.539979043538807     
 soft         electrons   241.55562963267175     
 total        electrons   277.09560867621053     
 augmentation electrons   35.539979043538807     
 soft         electrons   241.55562963267175     
 augmentation electrons   35.539979043538807     
 soft         electrons   241.55562963267175     
 total        electrons   277.09560867621053     
 total        electrons   277.09560867621053     
Note: The following floating-point exceptions are signalling: IEEE_OVERFLOW_FLAG
Note: The following floating-point exceptions are signalling: IEEE_OVERFLOW_FLAG
Note: The following floating-point exceptions are signalling: IEEE_OVERFLOW_FLAG
Note: The following floating-point exceptions are signalling: IEEE_OVERFLOW_FLAG
Note: The following floating-point exceptions are signalling: IEEE_OVERFLOW_FLAG
Note: The following floating-point exceptions are signalling: IEEE_OVERFLOW_FLAG
Note: The following floating-point exceptions are signalling: IEEE_OVERFLOW_FLAG
Note: The following floating-point exceptions are signalling: IEEE_OVERFLOW_FLAG
Note: The following floating-point exceptions are signalling: IEEE_OVERFLOW_FLAG
Note: The following floating-point exceptions are signalling: IEEE_OVERFLOW_FLAG
Note: The following floating-point exceptions are signalling: IEEE_OVERFLOW_FLAG
Note: The following floating-point exceptions are signalling: IEEE_OVERFLOW_FLAG
Note: The following floating-point exceptions are signalling: IEEE_OVERFLOW_FLAG
Note: The following floating-point exceptions are signalling: IEEE_OVERFLOW_FLAG
Note: The following floating-point exceptions are signalling: IEEE_OVERFLOW_FLAG
Note: The following floating-point exceptions are signalling: IEEE_OVERFLOW_FLAG
Note: The following floating-point exceptions are signalling: IEEE_OVERFLOW_FLAG
Note: The following floating-point exceptions are signalling: IEEE_OVERFLOW_FLAG
Note: The following floating-point exceptions are signalling: IEEE_OVERFLOW_FLAG
Note: The following floating-point exceptions are signalling: IEEE_OVERFLOW_FLAG
Note: The following floating-point exceptions are signalling: IEEE_OVERFLOW_FLAG
Note: The following floating-point exceptions are signalling: IEEE_OVERFLOW_FLAG
Note: The following floating-point exceptions are signalling: IEEE_OVERFLOW_FLAG
Note: The following floating-point exceptions are signalling: IEEE_OVERFLOW_FLAG
Note: The following floating-point exceptions are signalling: IEEE_OVERFLOW_FLAG
Note: The following floating-point exceptions are signalling: IEEE_OVERFLOW_FLAG
Note: The following floating-point exceptions are signalling: IEEE_OVERFLOW_FLAG
Note: The following floating-point exceptions are signalling: IEEE_OVERFLOW_FLAG
Note: The following floating-point exceptions are signalling: IEEE_OVERFLOW_FLAG
Note: The following floating-point exceptions are signalling: IEEE_OVERFLOW_FLAG
Note: The following floating-point exceptions are signalling: IEEE_OVERFLOW_FLAG
Note: The following floating-point exceptions are signalling: IEEE_OVERFLOW_FLAG
Note: The following floating-point exceptions are signalling: IEEE_OVERFLOW_FLAG
Note: The following floating-point exceptions are signalling: IEEE_OVERFLOW_FLAG
Note: The following floating-point exceptions are signalling: IEEE_OVERFLOW_FLAG
Note: The following floating-point exceptions are signalling: IEEE_OVERFLOW_FLAG
Note: The following floating-point exceptions are signalling: IEEE_OVERFLOW_FLAG
Note: The following floating-point exceptions are signalling: IEEE_OVERFLOW_FLAG
Note: The following floating-point exceptions are signalling: IEEE_OVERFLOW_FLAG
Note: The following floating-point exceptions are signalling: IEEE_OVERFLOW_FLAG
Note: The following floating-point exceptions are signalling: IEEE_OVERFLOW_FLAG
Note: The following floating-point exceptions are signalling: IEEE_OVERFLOW_FLAG
Note: The following floating-point exceptions are signalling: IEEE_OVERFLOW_FLAG
Note: The following floating-point exceptions are signalling: IEEE_OVERFLOW_FLAG
Note: The following floating-point exceptions are signalling: IEEE_OVERFLOW_FLAG
Note: The following floating-point exceptions are signalling: IEEE_OVERFLOW_FLAG
Note: The following floating-point exceptions are signalling: IEEE_OVERFLOW_FLAG
Note: The following floating-point exceptions are signalling: IEEE_OVERFLOW_FLAG
Note: The following floating-point exceptions are signalling: IEEE_OVERFLOW_FLAG
Note: The following floating-point exceptions are signalling: IEEE_OVERFLOW_FLAG
Note: The following floating-point exceptions are signalling: IEEE_OVERFLOW_FLAG
Note: The following floating-point exceptions are signalling: IEEE_OVERFLOW_FLAG
Note: The following floating-point exceptions are signalling: IEEE_OVERFLOW_FLAG
Note: The following floating-point exceptions are signalling: IEEE_OVERFLOW_FLAG
Note: The following floating-point exceptions are signalling: IEEE_OVERFLOW_FLAG
Note: The following floating-point exceptions are signalling: IEEE_OVERFLOW_FLAG
Note: The following floating-point exceptions are signalling: IEEE_OVERFLOW_FLAG
Note: The following floating-point exceptions are signalling: IEEE_OVERFLOW_FLAG
Note: The following floating-point exceptions are signalling: IEEE_OVERFLOW_FLAG
Note: The following floating-point exceptions are signalling: IEEE_OVERFLOW_FLAG
Note: The following floating-point exceptions are signalling: IEEE_OVERFLOW_FLAG
Note: The following floating-point exceptions are signalling: IEEE_OVERFLOW_FLAG
Note: The following floating-point exceptions are signalling: IEEE_OVERFLOW_FLAG
Note: The following floating-point exceptions are signalling: IEEE_OVERFLOW_FLAG
Note: The following floating-point exceptions are signalling: IEEE_OVERFLOW_FLAG
Note: The following floating-point exceptions are signalling: IEEE_OVERFLOW_FLAG
Note: The following floating-point exceptions are signalling: IEEE_OVERFLOW_FLAG
Note: The following floating-point exceptions are signalling: IEEE_OVERFLOW_FLAG
Note: The following floating-point exceptions are signalling: IEEE_OVERFLOW_FLAG
Note: The following floating-point exceptions are signalling: IEEE_OVERFLOW_FLAG
Note: The following floating-point exceptions are signalling: IEEE_OVERFLOW_FLAG
Note: The following floating-point exceptions are signalling: IEEE_OVERFLOW_FLAG
