   74   74   85    1
  0.2087222E+02  0.1036705E-08  0.2428040E-08  0.6136055E-09  0.5000000E-15
   1.0000000000000000E-004
  CAR 
 Name                                    
    278     15    180

  0.3742002E-15  0.1262379E-14  0.3742002E-15  0.2222222E-01
    1      -14.119713   1.000000
    2      -12.938032   1.000000
    3      -12.937294   1.000000
    4      -12.912226   1.000000
    5      -11.985158   1.000000
    6      -11.802551   1.000000
    7      -11.785238   1.000000
    8      -11.568506   1.000000
    9      -11.560955   1.000000
   10      -11.384250   1.000000
   11      -11.331774   1.000000
   12      -11.110859   1.000000
   13      -11.060655   1.000000
   14      -10.591142   1.000000
   15      -10.543779   1.000000
   16      -10.375732   1.000000
   17      -10.289885   1.000000
   18      -10.191271   1.000000
   19       -9.757523   1.000000
   20       -9.699798   1.000000
   21       -9.645476   1.000000
   22       -9.605503   1.000000
   23       -9.498057   1.000000
   24       -9.411349   1.000000
   25       -8.971088   1.000000
   26       -8.920540   1.000000
   27       -8.643761   1.000000
   28       -8.581125   1.000000
   29       -8.296999   1.000000
   30       -8.289675   1.000000
   31       -8.265533   1.000000
   32       -7.883534   1.000000
   33       -7.861216   1.000000
   34       -7.360582   1.000000
   35       -7.331961   1.000000
   36       -7.320289   1.000000
   37       -7.127481   1.000000
   38       -7.013100   1.000000
   39       -6.924485   1.000000
   40       -6.827409   1.000000
   41       -6.823743   1.000000
   42       -6.819040   1.000000
   43       -6.619713   1.000000
   44       -6.543691   1.000000
   45       -6.528947   1.000000
   46       -6.373559   1.000000
   47       -6.281863   1.000000
   48       -6.232018   1.000000
   49       -6.230681   1.000000
   50       -5.986278   1.000000
   51       -5.910487   1.000000
   52       -5.783753   1.000000
   53       -5.767349   1.000000
   54       -5.751636   1.000000
   55       -5.718728   1.000000
   56       -5.644507   1.000000
   57       -5.593164   1.000000
   58       -5.436961   1.000000
   59       -5.340545   1.000000
   60       -5.312871   1.000000
   61       -5.064824   1.000000
   62       -5.030169   1.000000
   63       -4.820176   1.000000
   64       -4.812306   1.000000
   65       -4.787634   1.000000
   66       -4.665763   1.000000
   67       -4.596885   1.000000
   68       -4.581041   1.000000
   69       -4.498719   1.000000
   70       -4.319907   1.000000
   71       -4.266715   1.000000
   72       -4.192384   1.000000
   73       -4.161979   1.000000
   74       -4.146433   1.000000
   75       -4.069747   1.000000
   76       -4.054520   1.000000
   77       -4.050433   1.000000
   78       -4.021503   1.000000
   79       -3.983214   1.000000
   80       -3.909098   1.000000
   81       -3.725325   1.000000
   82       -3.720120   1.000000
   83       -3.700347   1.000000
   84       -3.697228   1.000000
   85       -3.652158   1.000000
   86       -3.636623   1.000000
   87       -3.622338   1.000000
   88       -3.616302   1.000000
   89       -3.578929   1.000000
   90       -3.575769   1.000000
   91       -3.549216   1.000000
   92       -3.450886   1.000000
   93       -3.379705   1.000000
   94       -3.114379   1.000000
   95       -3.052756   1.000000
   96       -3.042567   1.000000
   97       -2.954132   1.000000
   98       -2.902622   1.000000
   99       -2.827135   1.000000
  100       -2.715437   1.000000
  101       -2.563621   1.000000
  102       -2.504890   1.000000
  103       -2.450891   1.000000
  104       -2.416720   1.000000
  105       -2.355793   1.000000
  106       -2.228680   1.000000
  107       -2.168947   1.000000
  108       -2.146990   1.000000
  109       -2.127754   1.000000
  110       -2.104177   1.000000
  111       -2.024962   1.000000
  112       -1.930837   1.000000
  113       -1.864681   1.000000
  114       -1.828044   1.000000
  115       -1.805866   1.000000
  116       -1.715505   1.000000
  117       -1.685921   1.000000
  118       -1.666969   1.000000
  119       -1.534365   1.000000
  120       -1.485769   1.000000
  121       -1.350003   1.000000
  122       -1.175997   1.000000
  123       -1.112897   1.000000
  124       -0.961550   1.000000
  125       -0.932483   1.000000
  126       -0.767907   1.000000
  127       -0.627175   1.000000
  128       -0.548444   1.000000
  129       -0.516984   1.000000
  130       -0.447618   1.000000
  131       -0.197064   1.000000
  132       -0.162147   1.000000
  133       -0.041968   1.000184
  134        0.119072   1.035221
  135        0.155311   1.011851
  136        0.167464   0.985057
  137        0.225868   0.663235
  138        0.299165   0.110823
  139        0.350564  -0.029560
  140        0.352368  -0.030816
  141        0.435019  -0.011074
  142        0.446346  -0.007797
  143        0.482133  -0.002067
  144        0.495463  -0.001164
  145        0.500941  -0.000908
  146        0.540009  -0.000127
  147        0.564213  -0.000032
  148        0.631851  -0.000000
  149        0.695834  -0.000000
  150        0.726346  -0.000000
  151        0.862786  -0.000000
  152        0.888146  -0.000000
  153        0.958454  -0.000000
  154        1.022123  -0.000000
  155        1.055177  -0.000000
  156        1.073694  -0.000000
  157        1.076692  -0.000000
  158        1.214753  -0.000000
  159        1.217100  -0.000000
  160        1.242012  -0.000000
  161        1.247715  -0.000000
  162        1.293723  -0.000000
  163        1.302706  -0.000000
  164        1.317466  -0.000000
  165        1.378306  -0.000000
  166        1.460134  -0.000000
  167        1.498992  -0.000000
  168        1.510930  -0.000000
  169        1.553434  -0.000000
  170        1.561081  -0.000000
  171        1.564353  -0.000000
  172        1.571140  -0.000000
  173        1.617340  -0.000000
  174        1.621709  -0.000000
  175        1.654691  -0.000000
  176        1.663490  -0.000000
  177        1.690131  -0.000000
  178        1.773557  -0.000000
  179        1.844099  -0.000000
  180        1.866152  -0.000000

  0.2000000E+00  0.1262379E-14  0.3742002E-15  0.4444444E-01
    1      -14.070455   1.000000
    2      -13.351606   1.000000
    3      -12.866053   1.000000
    4      -12.448890   1.000000
    5      -12.187639   1.000000
    6      -11.969096   1.000000
    7      -11.719508   1.000000
    8      -11.380007   1.000000
    9      -11.370110   1.000000
   10      -11.325185   1.000000
   11      -11.295033   1.000000
   12      -11.185664   1.000000
   13      -10.956940   1.000000
   14      -10.690498   1.000000
   15      -10.686623   1.000000
   16      -10.654831   1.000000
   17      -10.579074   1.000000
   18       -9.908467   1.000000
   19       -9.760360   1.000000
   20       -9.681025   1.000000
   21       -9.576613   1.000000
   22       -9.571173   1.000000
   23       -9.526477   1.000000
   24       -9.419325   1.000000
   25       -9.121666   1.000000
   26       -8.929796   1.000000
   27       -8.373831   1.000000
   28       -8.309657   1.000000
   29       -8.258979   1.000000
   30       -8.240937   1.000000
   31       -8.193984   1.000000
   32       -8.167433   1.000000
   33       -7.710320   1.000000
   34       -7.579483   1.000000
   35       -7.343482   1.000000
   36       -7.324925   1.000000
   37       -7.248017   1.000000
   38       -7.147894   1.000000
   39       -6.999410   1.000000
   40       -6.861057   1.000000
   41       -6.790173   1.000000
   42       -6.731247   1.000000
   43       -6.713741   1.000000
   44       -6.582469   1.000000
   45       -6.468617   1.000000
   46       -6.418534   1.000000
   47       -6.301981   1.000000
   48       -6.197447   1.000000
   49       -6.156828   1.000000
   50       -6.143204   1.000000
   51       -5.826549   1.000000
   52       -5.795380   1.000000
   53       -5.701416   1.000000
   54       -5.521399   1.000000
   55       -5.518043   1.000000
   56       -5.467516   1.000000
   57       -5.465806   1.000000
   58       -5.437653   1.000000
   59       -5.389881   1.000000
   60       -5.371541   1.000000
   61       -5.319368   1.000000
   62       -4.974601   1.000000
   63       -4.959103   1.000000
   64       -4.847677   1.000000
   65       -4.841139   1.000000
   66       -4.675348   1.000000
   67       -4.651407   1.000000
   68       -4.607605   1.000000
   69       -4.498711   1.000000
   70       -4.287634   1.000000
   71       -4.240706   1.000000
   72       -4.232837   1.000000
   73       -4.170628   1.000000
   74       -4.154548   1.000000
   75       -4.129063   1.000000
   76       -4.013731   1.000000
   77       -4.008204   1.000000
   78       -3.966308   1.000000
   79       -3.883706   1.000000
   80       -3.852354   1.000000
   81       -3.837911   1.000000
   82       -3.753550   1.000000
   83       -3.731967   1.000000
   84       -3.728119   1.000000
   85       -3.712052   1.000000
   86       -3.674950   1.000000
   87       -3.584855   1.000000
   88       -3.572465   1.000000
   89       -3.559221   1.000000
   90       -3.555042   1.000000
   91       -3.532439   1.000000
   92       -3.442233   1.000000
   93       -3.409632   1.000000
   94       -3.124639   1.000000
   95       -3.107086   1.000000
   96       -3.073737   1.000000
   97       -2.936267   1.000000
   98       -2.901109   1.000000
   99       -2.824835   1.000000
  100       -2.723257   1.000000
  101       -2.617737   1.000000
  102       -2.484352   1.000000
  103       -2.475706   1.000000
  104       -2.450280   1.000000
  105       -2.328103   1.000000
  106       -2.231243   1.000000
  107       -2.115660   1.000000
  108       -2.091730   1.000000
  109       -2.059793   1.000000
  110       -2.036438   1.000000
  111       -1.975304   1.000000
  112       -1.953276   1.000000
  113       -1.900563   1.000000
  114       -1.829779   1.000000
  115       -1.744423   1.000000
  116       -1.658608   1.000000
  117       -1.597437   1.000000
  118       -1.550394   1.000000
  119       -1.549604   1.000000
  120       -1.424301   1.000000
  121       -1.314466   1.000000
  122       -1.201144   1.000000
  123       -1.070800   1.000000
  124       -1.032367   1.000000
  125       -0.946995   1.000000
  126       -0.876657   1.000000
  127       -0.701740   1.000000
  128       -0.553417   1.000000
  129       -0.548037   1.000000
  130       -0.524084   1.000000
  131       -0.357436   1.000000
  132       -0.317222   1.000000
  133       -0.207459   1.000000
  134        0.002813   1.001590
  135        0.022742   1.003572
  136        0.106291   1.032031
  137        0.188711   0.905444
  138        0.312955   0.049608
  139        0.318312   0.030934
  140        0.431127  -0.012390
  141        0.471923  -0.003118
  142        0.496599  -0.001106
  143        0.512515  -0.000526
  144        0.539159  -0.000133
  145        0.555414  -0.000053
  146        0.595737  -0.000004
  147        0.619597  -0.000001
  148        0.627058  -0.000000
  149        0.742565  -0.000000
  150        0.764818  -0.000000
  151        0.890582  -0.000000
  152        0.988635  -0.000000
  153        0.992646  -0.000000
  154        1.034869  -0.000000
  155        1.115574  -0.000000
  156        1.132888  -0.000000
  157        1.159962  -0.000000
  158        1.206340  -0.000000
  159        1.219297  -0.000000
  160        1.238824  -0.000000
  161        1.308494  -0.000000
  162        1.322426  -0.000000
  163        1.322750  -0.000000
  164        1.368926  -0.000000
  165        1.398574  -0.000000
  166        1.474418  -0.000000
  167        1.491934  -0.000000
  168        1.498567  -0.000000
  169        1.509958  -0.000000
  170        1.560181  -0.000000
  171        1.575193  -0.000000
  172        1.602050  -0.000000
  173        1.623030  -0.000000
  174        1.640963  -0.000000
  175        1.678053  -0.000000
  176        1.728505  -0.000000
  177        1.729989  -0.000000
  178        1.826767  -0.000000
  179        1.868681  -0.000000
  180        1.913389  -0.000000

  0.4000000E+00  0.1262379E-14  0.3742002E-15  0.4444444E-01
    1      -13.923702   1.000000
    2      -13.682463   1.000000
    3      -12.728261   1.000000
    4      -12.501051   1.000000
    5      -11.920413   1.000000
    6      -11.894641   1.000000
    7      -11.837708   1.000000
    8      -11.337323   1.000000
    9      -11.291143   1.000000
   10      -11.289180   1.000000
   11      -11.174510   1.000000
   12      -11.128979   1.000000
   13      -10.973178   1.000000
   14      -10.896907   1.000000
   15      -10.817992   1.000000
   16      -10.786900   1.000000
   17      -10.679680   1.000000
   18      -10.202901   1.000000
   19       -9.758215   1.000000
   20       -9.727433   1.000000
   21       -9.497322   1.000000
   22       -9.448506   1.000000
   23       -9.437740   1.000000
   24       -9.372277   1.000000
   25       -9.165355   1.000000
   26       -8.892471   1.000000
   27       -8.410784   1.000000
   28       -8.156981   1.000000
   29       -7.980314   1.000000
   30       -7.947102   1.000000
   31       -7.904797   1.000000
   32       -7.904438   1.000000
   33       -7.856108   1.000000
   34       -7.836913   1.000000
   35       -7.613992   1.000000
   36       -7.557616   1.000000
   37       -7.451966   1.000000
   38       -7.399929   1.000000
   39       -7.238533   1.000000
   40       -6.948757   1.000000
   41       -6.838340   1.000000
   42       -6.639045   1.000000
   43       -6.601965   1.000000
   44       -6.521005   1.000000
   45       -6.494637   1.000000
   46       -6.261477   1.000000
   47       -6.234727   1.000000
   48       -6.104778   1.000000
   49       -6.035629   1.000000
   50       -5.971462   1.000000
   51       -5.946749   1.000000
   52       -5.843199   1.000000
   53       -5.842028   1.000000
   54       -5.678983   1.000000
   55       -5.564726   1.000000
   56       -5.433587   1.000000
   57       -5.279305   1.000000
   58       -5.247085   1.000000
   59       -5.235130   1.000000
   60       -5.230123   1.000000
   61       -5.200622   1.000000
   62       -5.140199   1.000000
   63       -5.003775   1.000000
   64       -4.922774   1.000000
   65       -4.829134   1.000000
   66       -4.763477   1.000000
   67       -4.697520   1.000000
   68       -4.537485   1.000000
   69       -4.472313   1.000000
   70       -4.397936   1.000000
   71       -4.269470   1.000000
   72       -4.243822   1.000000
   73       -4.224360   1.000000
   74       -4.182913   1.000000
   75       -4.175402   1.000000
   76       -4.106618   1.000000
   77       -4.054706   1.000000
   78       -4.012814   1.000000
   79       -3.919605   1.000000
   80       -3.836851   1.000000
   81       -3.809826   1.000000
   82       -3.808509   1.000000
   83       -3.801584   1.000000
   84       -3.759890   1.000000
   85       -3.701609   1.000000
   86       -3.603362   1.000000
   87       -3.589719   1.000000
   88       -3.562601   1.000000
   89       -3.445580   1.000000
   90       -3.397773   1.000000
   91       -3.380417   1.000000
   92       -3.378811   1.000000
   93       -3.338767   1.000000
   94       -3.222401   1.000000
   95       -3.194324   1.000000
   96       -3.144344   1.000000
   97       -3.068674   1.000000
   98       -2.949944   1.000000
   99       -2.931554   1.000000
  100       -2.768268   1.000000
  101       -2.621420   1.000000
  102       -2.466566   1.000000
  103       -2.434473   1.000000
  104       -2.311588   1.000000
  105       -2.298339   1.000000
  106       -2.278299   1.000000
  107       -2.184545   1.000000
  108       -2.099057   1.000000
  109       -2.062354   1.000000
  110       -2.040010   1.000000
  111       -1.866321   1.000000
  112       -1.795798   1.000000
  113       -1.792370   1.000000
  114       -1.711702   1.000000
  115       -1.671400   1.000000
  116       -1.626986   1.000000
  117       -1.505153   1.000000
  118       -1.382910   1.000000
  119       -1.356297   1.000000
  120       -1.232064   1.000000
  121       -1.216324   1.000000
  122       -1.202780   1.000000
  123       -1.171715   1.000000
  124       -1.102829   1.000000
  125       -1.043470   1.000000
  126       -0.973932   1.000000
  127       -0.851181   1.000000
  128       -0.803746   1.000000
  129       -0.799957   1.000000
  130       -0.680921   1.000000
  131       -0.531918   1.000000
  132       -0.526098   1.000000
  133       -0.211635   1.000000
  134       -0.189122   1.000000
  135       -0.044707   1.000159
  136        0.159810   1.003361
  137        0.169481   0.979368
  138        0.224045   0.677606
  139        0.361475  -0.034730
  140        0.397662  -0.026712
  141        0.427337  -0.013763
  142        0.456610  -0.005507
  143        0.509948  -0.000595
  144        0.531403  -0.000202
  145        0.569486  -0.000023
  146        0.591867  -0.000006
  147        0.712268  -0.000000
  148        0.721438  -0.000000
  149        0.773607  -0.000000
  150        0.865827  -0.000000
  151        1.034750  -0.000000
  152        1.067153  -0.000000
  153        1.082252  -0.000000
  154        1.118334  -0.000000
  155        1.150027  -0.000000
  156        1.179632  -0.000000
  157        1.215716  -0.000000
  158        1.304983  -0.000000
  159        1.323010  -0.000000
  160        1.331779  -0.000000
  161        1.354756  -0.000000
  162        1.361891  -0.000000
  163        1.375202  -0.000000
  164        1.446690  -0.000000
  165        1.461095  -0.000000
  166        1.492259  -0.000000
  167        1.503255  -0.000000
  168        1.522710  -0.000000
  169        1.581691  -0.000000
  170        1.603939  -0.000000
  171        1.619687  -0.000000
  172        1.652332  -0.000000
  173        1.663183  -0.000000
  174        1.693887  -0.000000
  175        1.695499  -0.000000
  176        1.729296  -0.000000
  177        1.766090  -0.000000
  178        1.782374  -0.000000
  179        1.859860  -0.000000
  180        1.884984  -0.000000

  0.3742002E-15  0.1262379E-14  0.1111111E+00  0.4444444E-01
    1      -14.074291   1.000000
    2      -12.903300   1.000000
    3      -12.902608   1.000000
    4      -12.873795   1.000000
    5      -12.090789   1.000000
    6      -11.774520   1.000000
    7      -11.756165   1.000000
    8      -11.614068   1.000000
    9      -11.607287   1.000000
   10      -11.450102   1.000000
   11      -11.295501   1.000000
   12      -11.120846   1.000000
   13      -11.072282   1.000000
   14      -10.568531   1.000000
   15      -10.567261   1.000000
   16      -10.348122   1.000000
   17      -10.272620   1.000000
   18      -10.151986   1.000000
   19       -9.780615   1.000000
   20       -9.730243   1.000000
   21       -9.632834   1.000000
   22       -9.626645   1.000000
   23       -9.498714   1.000000
   24       -9.398220   1.000000
   25       -8.950153   1.000000
   26       -8.943297   1.000000
   27       -8.641243   1.000000
   28       -8.573681   1.000000
   29       -8.332167   1.000000
   30       -8.277002   1.000000
   31       -8.094998   1.000000
   32       -7.961682   1.000000
   33       -7.895789   1.000000
   34       -7.470187   1.000000
   35       -7.424950   1.000000
   36       -7.309189   1.000000
   37       -7.102013   1.000000
   38       -7.011395   1.000000
   39       -6.911213   1.000000
   40       -6.767314   1.000000
   41       -6.760880   1.000000
   42       -6.739248   1.000000
   43       -6.604270   1.000000
   44       -6.544073   1.000000
   45       -6.517547   1.000000
   46       -6.387180   1.000000
   47       -6.310661   1.000000
   48       -6.276600   1.000000
   49       -6.253421   1.000000
   50       -5.933627   1.000000
   51       -5.849900   1.000000
   52       -5.845343   1.000000
   53       -5.783507   1.000000
   54       -5.757840   1.000000
   55       -5.689199   1.000000
   56       -5.547806   1.000000
   57       -5.533272   1.000000
   58       -5.384953   1.000000
   59       -5.337692   1.000000
   60       -5.291854   1.000000
   61       -5.043301   1.000000
   62       -5.021621   1.000000
   63       -4.786757   1.000000
   64       -4.760609   1.000000
   65       -4.733640   1.000000
   66       -4.655816   1.000000
   67       -4.592600   1.000000
   68       -4.578619   1.000000
   69       -4.508351   1.000000
   70       -4.326214   1.000000
   71       -4.248108   1.000000
   72       -4.200394   1.000000
   73       -4.190415   1.000000
   74       -4.142786   1.000000
   75       -4.103956   1.000000
   76       -4.096460   1.000000
   77       -4.069832   1.000000
   78       -4.050773   1.000000
   79       -4.048801   1.000000
   80       -3.940757   1.000000
   81       -3.884859   1.000000
   82       -3.872189   1.000000
   83       -3.801546   1.000000
   84       -3.767682   1.000000
   85       -3.749466   1.000000
   86       -3.671855   1.000000
   87       -3.631962   1.000000
   88       -3.603795   1.000000
   89       -3.586473   1.000000
   90       -3.574433   1.000000
   91       -3.549334   1.000000
   92       -3.445852   1.000000
   93       -3.368264   1.000000
   94       -3.123807   1.000000
   95       -3.054144   1.000000
   96       -3.013171   1.000000
   97       -2.924930   1.000000
   98       -2.827194   1.000000
   99       -2.763086   1.000000
  100       -2.631830   1.000000
  101       -2.594840   1.000000
  102       -2.561034   1.000000
  103       -2.517416   1.000000
  104       -2.365243   1.000000
  105       -2.326665   1.000000
  106       -2.310371   1.000000
  107       -2.202201   1.000000
  108       -2.129508   1.000000
  109       -2.105076   1.000000
  110       -2.084112   1.000000
  111       -2.078247   1.000000
  112       -1.894594   1.000000
  113       -1.877697   1.000000
  114       -1.873545   1.000000
  115       -1.800676   1.000000
  116       -1.737540   1.000000
  117       -1.676892   1.000000
  118       -1.623833   1.000000
  119       -1.436410   1.000000
  120       -1.412521   1.000000
  121       -1.256610   1.000000
  122       -1.226648   1.000000
  123       -1.088385   1.000000
  124       -1.029310   1.000000
  125       -0.865057   1.000000
  126       -0.737187   1.000000
  127       -0.679112   1.000000
  128       -0.643536   1.000000
  129       -0.586913   1.000000
  130       -0.354724   1.000000
  131       -0.314669   1.000000
  132       -0.272734   1.000000
  133        0.038340   1.006284
  134        0.116990   1.034929
  135        0.134272   1.033230
  136        0.144329   1.026373
  137        0.179003   0.947331
  138        0.206063   0.807194
  139        0.298211   0.115768
  140        0.318039   0.031817
  141        0.319991   0.025648
  142        0.339592  -0.017753
  143        0.487820  -0.001626
  144        0.492666  -0.001317
  145        0.522073  -0.000327
  146        0.677832  -0.000000
  147        0.710924  -0.000000
  148        0.805581  -0.000000
  149        0.840889  -0.000000
  150        0.852287  -0.000000
  151        0.859246  -0.000000
  152        0.937234  -0.000000
  153        0.958727  -0.000000
  154        0.968386  -0.000000
  155        1.025236  -0.000000
  156        1.047260  -0.000000
  157        1.148319  -0.000000
  158        1.167294  -0.000000
  159        1.207514  -0.000000
  160        1.238686  -0.000000
  161        1.279190  -0.000000
  162        1.292083  -0.000000
  163        1.321172  -0.000000
  164        1.347976  -0.000000
  165        1.383772  -0.000000
  166        1.448350  -0.000000
  167        1.462666  -0.000000
  168        1.468455  -0.000000
  169        1.515660  -0.000000
  170        1.531958  -0.000000
  171        1.539145  -0.000000
  172        1.572892  -0.000000
  173        1.641725  -0.000000
  174        1.646734  -0.000000
  175        1.707081  -0.000000
  176        1.709449  -0.000000
  177        1.736606  -0.000000
  178        1.789851  -0.000000
  179        1.798904  -0.000000
  180        1.849135  -0.000000

  0.2000000E+00  0.1262379E-14  0.1111111E+00  0.8888889E-01
    1      -14.025433   1.000000
    2      -13.312865   1.000000
    3      -12.827990   1.000000
    4      -12.419767   1.000000
    5      -12.155336   1.000000
    6      -12.071788   1.000000
    7      -11.781289   1.000000
    8      -11.433553   1.000000
    9      -11.408569   1.000000
   10      -11.302747   1.000000
   11      -11.258560   1.000000
   12      -11.209170   1.000000
   13      -10.958287   1.000000
   14      -10.671469   1.000000
   15      -10.664518   1.000000
   16      -10.637301   1.000000
   17      -10.592044   1.000000
   18       -9.890457   1.000000
   19       -9.786247   1.000000
   20       -9.677124   1.000000
   21       -9.591594   1.000000
   22       -9.568980   1.000000
   23       -9.516211   1.000000
   24       -9.423339   1.000000
   25       -9.119082   1.000000
   26       -8.923182   1.000000
   27       -8.398626   1.000000
   28       -8.313590   1.000000
   29       -8.255255   1.000000
   30       -8.240648   1.000000
   31       -8.187656   1.000000
   32       -8.024972   1.000000
   33       -7.794376   1.000000
   34       -7.657822   1.000000
   35       -7.413952   1.000000
   36       -7.248127   1.000000
   37       -7.207596   1.000000
   38       -7.134846   1.000000
   39       -7.003498   1.000000
   40       -6.846816   1.000000
   41       -6.778128   1.000000
   42       -6.758409   1.000000
   43       -6.674673   1.000000
   44       -6.599458   1.000000
   45       -6.573582   1.000000
   46       -6.467841   1.000000
   47       -6.247740   1.000000
   48       -6.237028   1.000000
   49       -6.098096   1.000000
   50       -5.971279   1.000000
   51       -5.850912   1.000000
   52       -5.823825   1.000000
   53       -5.680363   1.000000
   54       -5.550771   1.000000
   55       -5.532147   1.000000
   56       -5.483346   1.000000
   57       -5.431865   1.000000
   58       -5.369316   1.000000
   59       -5.341415   1.000000
   60       -5.317722   1.000000
   61       -5.267204   1.000000
   62       -4.959297   1.000000
   63       -4.946123   1.000000
   64       -4.811738   1.000000
   65       -4.809747   1.000000
   66       -4.652268   1.000000
   67       -4.650673   1.000000
   68       -4.538800   1.000000
   69       -4.495909   1.000000
   70       -4.311772   1.000000
   71       -4.260134   1.000000
   72       -4.231147   1.000000
   73       -4.184528   1.000000
   74       -4.137523   1.000000
   75       -4.133013   1.000000
   76       -4.085957   1.000000
   77       -4.074468   1.000000
   78       -4.014335   1.000000
   79       -3.922272   1.000000
   80       -3.889512   1.000000
   81       -3.879317   1.000000
   82       -3.863089   1.000000
   83       -3.820766   1.000000
   84       -3.804576   1.000000
   85       -3.761877   1.000000
   86       -3.716942   1.000000
   87       -3.686016   1.000000
   88       -3.631138   1.000000
   89       -3.579422   1.000000
   90       -3.536649   1.000000
   91       -3.453519   1.000000
   92       -3.418958   1.000000
   93       -3.388132   1.000000
   94       -3.125581   1.000000
   95       -3.054425   1.000000
   96       -3.014284   1.000000
   97       -2.971441   1.000000
   98       -2.928683   1.000000
   99       -2.806386   1.000000
  100       -2.727440   1.000000
  101       -2.624492   1.000000
  102       -2.487587   1.000000
  103       -2.456285   1.000000
  104       -2.416712   1.000000
  105       -2.325115   1.000000
  106       -2.287112   1.000000
  107       -2.146701   1.000000
  108       -2.129885   1.000000
  109       -2.095511   1.000000
  110       -2.055450   1.000000
  111       -1.967245   1.000000
  112       -1.870083   1.000000
  113       -1.865309   1.000000
  114       -1.821850   1.000000
  115       -1.773914   1.000000
  116       -1.713772   1.000000
  117       -1.653253   1.000000
  118       -1.528148   1.000000
  119       -1.489392   1.000000
  120       -1.378162   1.000000
  121       -1.277033   1.000000
  122       -1.250854   1.000000
  123       -1.095853   1.000000
  124       -0.998017   1.000000
  125       -0.969575   1.000000
  126       -0.828805   1.000000
  127       -0.775587   1.000000
  128       -0.742066   1.000000
  129       -0.517391   1.000000
  130       -0.485358   1.000000
  131       -0.318787   1.000000
  132       -0.157798   1.000000
  133       -0.053519   1.000098
  134        0.021771   1.003441
  135        0.028295   1.004398
  136        0.052416   1.009909
  137        0.101056   1.030011
  138        0.231676   0.616375
  139        0.255734   0.414519
  140        0.331002  -0.002659
  141        0.390310  -0.029922
  142        0.441493  -0.009101
  143        0.507527  -0.000668
  144        0.524103  -0.000295
  145        0.540308  -0.000125
  146        0.661257  -0.000000
  147        0.721129  -0.000000
  148        0.735006  -0.000000
  149        0.865939  -0.000000
  150        0.881471  -0.000000
  151        0.917289  -0.000000
  152        0.939144  -0.000000
  153        0.989847  -0.000000
  154        1.066993  -0.000000
  155        1.099576  -0.000000
  156        1.166925  -0.000000
  157        1.190218  -0.000000
  158        1.202451  -0.000000
  159        1.227418  -0.000000
  160        1.241264  -0.000000
  161        1.281455  -0.000000
  162        1.302786  -0.000000
  163        1.303893  -0.000000
  164        1.394385  -0.000000
  165        1.412214  -0.000000
  166        1.415148  -0.000000
  167        1.447190  -0.000000
  168        1.488632  -0.000000
  169        1.531532  -0.000000
  170        1.548459  -0.000000
  171        1.577625  -0.000000
  172        1.578376  -0.000000
  173        1.646902  -0.000000