   48   48    1    1
  0.2461586E+02  0.8645320E-09  0.6085000E-09  0.2593596E-08  0.5000000E-15
   1.0000000000000000E-004
  CAR 
 Name                                    
    178    149    114

  0.3742002E-15  0.3742002E-15  0.3742002E-15  0.3367003E-02
    1      -14.007279   1.000000
    2      -12.769508   1.000000
    3      -12.471411   1.000000
    4      -12.005021   1.000000
    5      -11.586791   1.000000
    6      -11.253178   1.000000
    7      -11.178216   1.000000
    8      -10.911087   1.000000
    9      -10.781070   1.000000
   10      -10.767069   1.000000
   11      -10.621755   1.000000
   12      -10.482807   1.000000
   13      -10.259656   1.000000
   14      -10.206756   1.000000
   15       -9.833348   1.000000
   16       -9.337200   1.000000
   17       -9.147198   1.000000
   18       -8.976314   1.000000
   19       -8.904701   1.000000
   20       -8.471291   1.000000
   21       -8.396512   1.000000
   22       -8.231737   1.000000
   23       -8.069914   1.000000
   24       -8.022578   1.000000
   25       -7.624991   1.000000
   26       -7.550240   1.000000
   27       -7.473594   1.000000
   28       -7.197279   1.000000
   29       -6.645396   1.000000
   30       -6.556939   1.000000
   31       -6.311970   1.000000
   32       -6.244530   1.000000
   33       -6.123151   1.000000
   34       -5.967920   1.000000
   35       -5.897439   1.000000
   36       -5.844314   1.000000
   37       -5.564764   1.000000
   38       -5.430977   1.000000
   39       -5.357673   1.000000
   40       -5.295291   1.000000
   41       -5.073360   1.000000
   42       -5.008388   1.000000
   43       -4.928408   1.000000
   44       -4.887069   1.000000
   45       -4.794627   1.000000
   46       -4.743163   1.000000
   47       -4.684420   1.000000
   48       -4.594482   1.000000
   49       -4.425092   1.000000
   50       -4.374846   1.000000
   51       -4.269214   1.000000
   52       -4.227797   1.000000
   53       -4.045637   1.000000
   54       -4.006081   1.000000
   55       -3.958055   1.000000
   56       -3.950540   1.000000
   57       -3.824268   1.000000
   58       -3.796039   1.000000
   59       -3.710179   1.000000
   60       -3.660812   1.000000
   61       -3.479970   1.000000
   62       -3.461571   1.000000
   63       -3.338337   1.000000
   64       -3.300615   1.000000
   65       -3.189838   1.000000
   66       -3.032096   1.000000
   67       -2.987493   1.000000
   68       -2.818675   1.000000
   69       -2.749668   1.000000
   70       -2.595585   1.000000
   71       -2.539310   1.000000
   72       -2.402612   1.000000
   73       -2.314791   1.000000
   74       -2.226776   1.000000
   75       -1.907986   1.000000
   76       -1.713195   1.000000
   77       -1.671218   1.000000
   78       -1.621109   1.000000
   79       -1.475592   1.000000
   80       -1.429952   1.000000
   81       -1.338914   1.000000
   82       -1.154545   1.000000
   83       -1.121712   1.000000
   84       -0.857295   1.000050
   85       -0.595652   1.014440
   86       -0.484661   1.035397
   87       -0.348782   0.903895
   88       -0.268048   0.634921
   89       -0.040641  -0.022368
   90        0.033306  -0.033575
   91        0.062851  -0.027974
   92        0.086962  -0.022452
   93        0.185378  -0.005604
   94        0.321431  -0.000294
   95        0.421949  -0.000017
   96        0.467928  -0.000004
   97        0.499848  -0.000001
   98        0.549057  -0.000000
   99        0.630348  -0.000000
  100        0.739956  -0.000000
  101        0.762252  -0.000000
  102        0.809549  -0.000000
  103        0.990830  -0.000000
  104        1.057945  -0.000000
  105        1.137270  -0.000000
  106        1.201081  -0.000000
  107        1.218143  -0.000000
  108        1.242609  -0.000000
  109        1.336011  -0.000000
  110        1.420336  -0.000000
  111        1.532723  -0.000000
  112        1.598620  -0.000000
  113        1.777352  -0.000000
  114        1.916766  -0.000000

  0.1111111E+00  0.3729374E-15  0.3860503E-15  0.6734007E-02
    1      -13.983711   1.000000
    2      -12.763623   1.000000
    3      -12.572458   1.000000
    4      -11.934746   1.000000
    5      -11.574508   1.000000
    6      -11.254067   1.000000
    7      -11.217253   1.000000
    8      -10.919380   1.000000
    9      -10.781372   1.000000
   10      -10.761806   1.000000
   11      -10.612424   1.000000
   12      -10.472397   1.000000
   13      -10.242586   1.000000
   14      -10.170722   1.000000
   15       -9.835863   1.000000
   16       -9.352340   1.000000
   17       -9.151208   1.000000
   18       -8.965424   1.000000
   19       -8.910070   1.000000
   20       -8.521884   1.000000
   21       -8.428509   1.000000
   22       -8.234233   1.000000
   23       -8.065773   1.000000
   24       -7.989147   1.000000
   25       -7.620250   1.000000
   26       -7.570947   1.000000
   27       -7.517234   1.000000
   28       -7.253543   1.000000
   29       -6.607577   1.000000
   30       -6.513948   1.000000
   31       -6.282397   1.000000
   32       -6.205752   1.000000
   33       -6.097888   1.000000
   34       -5.980290   1.000000
   35       -5.904045   1.000000
   36       -5.822098   1.000000
   37       -5.584923   1.000000
   38       -5.394894   1.000000
   39       -5.339291   1.000000
   40       -5.260751   1.000000
   41       -5.158654   1.000000
   42       -5.030322   1.000000
   43       -4.925796   1.000000
   44       -4.845354   1.000000
   45       -4.791664   1.000000
   46       -4.736214   1.000000
   47       -4.660642   1.000000
   48       -4.587722   1.000000
   49       -4.434590   1.000000
   50       -4.348860   1.000000
   51       -4.254583   1.000000
   52       -4.219542   1.000000
   53       -4.068314   1.000000
   54       -3.997390   1.000000
   55       -3.960354   1.000000
   56       -3.939466   1.000000
   57       -3.858592   1.000000
   58       -3.786754   1.000000
   59       -3.724761   1.000000
   60       -3.648804   1.000000
   61       -3.543510   1.000000
   62       -3.432260   1.000000
   63       -3.355833   1.000000
   64       -3.329192   1.000000
   65       -3.201352   1.000000
   66       -3.000964   1.000000
   67       -2.966139   1.000000
   68       -2.820039   1.000000
   69       -2.754261   1.000000
   70       -2.636247   1.000000
   71       -2.561172   1.000000
   72       -2.374935   1.000000
   73       -2.301712   1.000000
   74       -2.220603   1.000000
   75       -1.968241   1.000000
   76       -1.725775   1.000000
   77       -1.643048   1.000000
   78       -1.607502   1.000000
   79       -1.468628   1.000000
   80       -1.389299   1.000000
   81       -1.304944   1.000000
   82       -1.174460   1.000000
   83       -1.104675   1.000000
   84       -0.893811   1.000017
   85       -0.585410   1.016484
   86       -0.469293   1.034922
   87       -0.368669   0.947001
   88       -0.250326   0.561717
   89       -0.059603  -0.007868
   90        0.024977  -0.034604
   91        0.059492  -0.028710
   92        0.131564  -0.013075
   93        0.219643  -0.002961
   94        0.280223  -0.000805
   95        0.399443  -0.000034
   96        0.456390  -0.000006
   97        0.502994  -0.000001
   98        0.528820  -0.000000
   99        0.638391  -0.000000
  100        0.749324  -0.000000
  101        0.766845  -0.000000
  102        0.849630  -0.000000
  103        1.004336  -0.000000
  104        1.097372  -0.000000
  105        1.156366  -0.000000
  106        1.210022  -0.000000
  107        1.224469  -0.000000
  108        1.255878  -0.000000
  109        1.344023  -0.000000
  110        1.429547  -0.000000
  111        1.561648  -0.000000
  112        1.642993  -0.000000
  113        1.787947  -0.000000
  114        3.769934  -0.000000

  0.2222222E+00  0.3922785E-15  0.3630220E-15  0.6734007E-02
    1      -13.915149   1.000000
    2      -12.857070   1.000000
    3      -12.648096   1.000000
    4      -11.846447   1.000000
    5      -11.564258   1.000000
    6      -11.297900   1.000000
    7      -11.229615   1.000000
    8      -10.939082   1.000000
    9      -10.784248   1.000000
   10      -10.747040   1.000000
   11      -10.588288   1.000000
   12      -10.446810   1.000000
   13      -10.215917   1.000000
   14      -10.073214   1.000000
   15       -9.845873   1.000000
   16       -9.394702   1.000000
   17       -9.150011   1.000000
   18       -8.926283   1.000000
   19       -8.910468   1.000000
   20       -8.656518   1.000000
   21       -8.532796   1.000000
   22       -8.238196   1.000000
   23       -8.082242   1.000000
   24       -7.906139   1.000000
   25       -7.646903   1.000000
   26       -7.597873   1.000000
   27       -7.558386   1.000000
   28       -7.330987   1.000000
   29       -6.569032   1.000000
   30       -6.455360   1.000000
   31       -6.241911   1.000000
   32       -6.158569   1.000000
   33       -6.036874   1.000000
   34       -5.988981   1.000000
   35       -5.882572   1.000000
   36       -5.756043   1.000000
   37       -5.551855   1.000000
   38       -5.440484   1.000000
   39       -5.309172   1.000000
   40       -5.222182   1.000000
   41       -5.122267   1.000000
   42       -4.997947   1.000000
   43       -4.935099   1.000000
   44       -4.893375   1.000000
   45       -4.820588   1.000000
   46       -4.702573   1.000000
   47       -4.599899   1.000000
   48       -4.542905   1.000000
   49       -4.453498   1.000000
   50       -4.325982   1.000000
   51       -4.239064   1.000000
   52       -4.177393   1.000000
   53       -4.104194   1.000000
   54       -4.020576   1.000000
   55       -3.961511   1.000000
   56       -3.942803   1.000000
   57       -3.864915   1.000000
   58       -3.769194   1.000000
   59       -3.739433   1.000000
   60       -3.629092   1.000000
   61       -3.601095   1.000000
   62       -3.505144   1.000000
   63       -3.419338   1.000000
   64       -3.320395   1.000000
   65       -3.212930   1.000000
   66       -2.987518   1.000000
   67       -2.908866   1.000000
   68       -2.849100   1.000000
   69       -2.817821   1.000000
   70       -2.652858   1.000000
   71       -2.593774   1.000000
   72       -2.340685   1.000000
   73       -2.267686   1.000000
   74       -2.220738   1.000000
   75       -2.056882   1.000000
   76       -1.752254   1.000000
   77       -1.602674   1.000000
   78       -1.568675   1.000000
   79       -1.467217   1.000000
   80       -1.391112   1.000000
   81       -1.200788   1.000000
   82       -1.119128   1.000000
   83       -1.047906   1.000000
   84       -0.987282   1.000001
   85       -0.598928   1.013818
   86       -0.434443   1.024464
   87       -0.412107   1.008164
   88       -0.206494   0.377881
   89       -0.043701  -0.020460
   90       -0.020618  -0.031286
   91        0.078862  -0.024325
   92        0.140067  -0.011591
   93        0.227803  -0.002516
   94        0.257433  -0.001348
   95        0.341377  -0.000175
   96        0.471134  -0.000003
   97        0.497977  -0.000001
   98        0.562576  -0.000000
   99        0.655935  -0.000000
  100        0.745148  -0.000000
  101        0.773547  -0.000000
  102        0.968583  -0.000000
  103        1.047290  -0.000000
  104        1.107713  -0.000000
  105        1.173708  -0.000000
  106        1.222098  -0.000000
  107        1.264747  -0.000000
  108        1.305490  -0.000000
  109        1.382226  -0.000000
  110        1.440105  -0.000000
  111        1.543286  -0.000000
  112        1.638570  -0.000000
  113        1.698650  -0.000000
  114        1.867413  -0.000000

  0.3333333E+00  0.3713828E-15  0.3468587E-15  0.6734007E-02
    1      -13.810754   1.000000
    2      -13.069895   1.000000
    3      -12.589462   1.000000
    4      -11.845434   1.000000
    5      -11.573142   1.000000
    6      -11.302907   1.000000
    7      -11.217248   1.000000
    8      -10.959192   1.000000
    9      -10.788308   1.000000
   10      -10.728975   1.000000
   11      -10.559639   1.000000
   12      -10.427339   1.000000
   13      -10.190697   1.000000
   14       -9.940749   1.000000
   15       -9.868395   1.000000
   16       -9.454868   1.000000
   17       -9.119901   1.000000
   18       -8.945303   1.000000
   19       -8.824651   1.000000
   20       -8.796651   1.000000
   21       -8.685322   1.000000
   22       -8.248169   1.000000
   23       -8.103923   1.000000
   24       -7.975685   1.000000
   25       -7.629086   1.000000
   26       -7.615308   1.000000
   27       -7.466572   1.000000
   28       -7.347678   1.000000
   29       -6.555394   1.000000
   30       -6.480715   1.000000
   31       -6.364319   1.000000
   32       -6.183319   1.000000
   33       -5.923407   1.000000
   34       -5.870681   1.000000
   35       -5.850243   1.000000
   36       -5.666213   1.000000
   37       -5.473392   1.000000
   38       -5.434977   1.000000
   39       -5.280280   1.000000
   40       -5.170792   1.000000
   41       -5.127378   1.000000
   42       -5.000996   1.000000
   43       -4.961379   1.000000
   44       -4.870275   1.000000
   45       -4.797337   1.000000
   46       -4.674773   1.000000
   47       -4.577837   1.000000
   48       -4.493119   1.000000
   49       -4.449098   1.000000
   50       -4.316140   1.000000
   51       -4.260423   1.000000
   52       -4.172428   1.000000
   53       -4.131171   1.000000
   54       -4.034332   1.000000
   55       -4.010819   1.000000
   56       -3.928301   1.000000
   57       -3.824451   1.000000
   58       -3.758637   1.000000
   59       -3.716158   1.000000
   60       -3.631457   1.000000
   61       -3.606941   1.000000
   62       -3.594481   1.000000
   63       -3.439724   1.000000
   64       -3.312456   1.000000
   65       -3.221508   1.000000
   66       -3.077951   1.000000
   67       -2.989398   1.000000
   68       -2.875720   1.000000
   69       -2.810129   1.000000
   70       -2.635686   1.000000
   71       -2.599731   1.000000
   72       -2.412428   1.000000
   73       -2.214961   1.000000
   74       -2.184896   1.000000
   75       -2.046636   1.000000
   76       -1.796633   1.000000
   77       -1.616736   1.000000
   78       -1.520103   1.000000
   79       -1.453468   1.000000
   80       -1.393220   1.000000
   81       -1.211952   1.000000
   82       -1.059931   1.000000
   83       -1.042477   1.000000
   84       -0.828966   1.000113
   85       -0.592321   1.015089
   86       -0.458246   1.033218
   87       -0.443395   1.028674
   88       -0.177670   0.265547
   89       -0.121285   0.092918
   90       -0.053687  -0.013100
   91       -0.013255  -0.033195
   92        0.174135  -0.006798
   93        0.234541  -0.002194
   94        0.325980  -0.000262
   95        0.359641  -0.000106
   96        0.453171  -0.000006
   97        0.489013  -0.000002
   98        0.662761  -0.000000
   99        0.699798  -0.000000
  100        0.767763  -0.000000
  101        0.802883  -0.000000
  102        1.042259  -0.000000
  103        1.069890  -0.000000
  104        1.121839  -0.000000
  105        1.162535  -0.000000
  106        1.233257  -0.000000
  107        1.332147  -0.000000
  108        1.355897  -0.000000
  109        1.428537  -0.000000
  110        1.443911  -0.000000
  111        1.536874  -0.000000
  112        1.565119  -0.000000
  113        1.632604  -0.000000
  114        2.078879  -0.000000

  0.4444444E+00  0.3870091E-15  0.3932070E-15  0.6734007E-02
    1      -13.705175   1.000000
    2      -13.239691   1.000000
    3      -12.529339   1.000000
    4      -11.903329   1.000000
    5      -11.561755   1.000000
    6      -11.288538   1.000000
    7      -11.208573   1.000000
    8      -10.971136   1.000000
    9      -10.790758   1.000000
   10      -10.716879   1.000000
   11      -10.539521   1.000000
   12      -10.425360   1.000000
   13      -10.163233   1.000000
   14       -9.894137   1.000000
   15       -9.822343   1.000000
   16       -9.514470   1.000000
   17       -9.057646   1.000000
   18       -9.012249   1.000000
   19       -8.847759   1.000000
   20       -8.836014   1.000000
   21       -8.713329   1.000000
   22       -8.264155   1.000000
   23       -8.191866   1.000000
   24       -8.010416   1.000000
   25       -7.638495   1.000000
   26       -7.585484   1.000000
   27       -7.452487   1.000000
   28       -7.188756   1.000000
   29       -6.624341   1.000000
   30       -6.574700   1.000000
   31       -6.467598   1.000000
   32       -6.177601   1.000000
   33       -5.895633   1.000000
   34       -5.761324   1.000000
   35       -5.755951   1.000000
   36       -5.601134   1.000000
   37       -5.441646   1.000000
   38       -5.368066   1.000000
   39       -5.300708   1.000000
   40       -5.186942   1.000000
   41       -5.117303   1.000000
   42       -4.997451   1.000000
   43       -4.973926   1.000000
   44       -4.884623   1.000000
   45       -4.705595   1.000000
   46       -4.670113   1.000000
   47       -4.564605   1.000000
   48       -4.474916   1.000000
   49       -4.397053   1.000000
   50       -4.328935   1.000000
   51       -4.296361   1.000000
   52       -4.254136   1.000000
   53       -4.110891   1.000000
   54       -4.066563   1.000000
   55       -4.027549   1.000000
   56       -3.870387   1.000000
   57       -3.838282   1.000000
   58       -3.748879   1.000000
   59       -3.691102   1.000000
   60       -3.633671   1.000000
   61       -3.595385   1.000000
   62       -3.566893   1.000000
   63       -3.445422   1.000000
   64       -3.330390   1.000000
   65       -3.243319   1.000000
   66       -3.205010   1.000000
   67       -3.039245   1.000000
   68       -2.903572   1.000000
   69       -2.787697   1.000000
   70       -2.659935   1.000000
   71       -2.583642   1.000000
   72       -2.474447   1.000000
   73       -2.189970   1.000000
   74       -2.116320   1.000000
   75       -2.011740   1.000000
   76       -1.829722   1.000000
   77       -1.640931   1.000000
   78       -1.520487   1.000000
   79       -1.435170   1.000000
   80       -1.382116   1.000000
   81       -1.279473   1.000000
   82       -1.033252   1.000000
   83       -0.932875   1.000005
   84       -0.711566   1.001952
   85       -0.594063   1.014748
   86       -0.535066   1.027792
   87       -0.395679   0.990024
   88       -0.231501   0.482248
   89       -0.145961   0.159377
   90       -0.087874   0.027208
   91        0.011856  -0.035432
   92        0.118271  -0.015617
   93        0.160058  -0.008557
   94        0.307927  -0.000414
   95        0.398229  -0.000035
   96        0.466455  -0.000004
   97        0.567662  -0.000000
   98        0.726996  -0.000000
   99        0.742954  -0.000000
  100        0.835696  -0.000000
  101        0.921519  -0.000000
  102        0.978577  -0.000000
  103        1.091344  -0.000000
  104        1.142024  -0.000000
  105        1.212951  -0.000000
  106        1.257476  -0.000000
  107        1.312781  -0.000000
  108        1.363192  -0.000000
  109        1.423835  -0.000000
  110        1.462513  -0.000000
  111        1.581655  -0.000000
  112        1.666737  -0.000000
  113        1.816382  -0.000000
  114        1.960932  -0.000000

  0.3742002E-15  0.9090909E-01  0.3596334E-15  0.6734007E-02
    1      -13.974794   1.000000
    2      -12.744150   1.000000
    3      -12.474545   1.000000
    4      -11.972464   1.000000
    5      -11.564623   1.000000
    6      -11.411207   1.000000
    7      -11.201891   1.000000
    8      -11.131677   1.000000
    9      -10.898914   1.000000
   10      -10.611162   1.000000
   11      -10.505739   1.000000
   12      -10.384090   1.000000
   13      -10.317852   1.000000
   14      -10.229640   1.000000
   15       -9.664240   1.000000
   16       -9.513492   1.000000
   17       -9.127286   1.000000
   18       -8.961091   1.000000
   19       -8.790315   1.000000
   20       -8.511747   1.000000
   21       -8.450531   1.000000
   22       -8.092452   1.000000
   23       -8.074463   1.000000
   24       -7.955767   1.000000
   25       -7.643861   1.000000
   26       -7.515328   1.000000
   27       -7.298046   1.000000
   28       -7.180480   1.000000
   29       -6.641071   1.000000
   30       -6.549542   1.000000
   31       -6.338629   1.000000
   32       -6.252764   1.000000
   33       -6.114804   1.000000
   34       -5.995487   1.000000
   35       -5.874859   1.000000
   36       -5.811961   1.000000
   37       -5.559636   1.000000
   38       -5.452455   1.000000
   39       -5.347587   1.000000
   40       -5.274586   1.000000
   41       -5.150783   1.000000
   42       -5.058973   1.000000
   43       -4.933813   1.000000
   44       -4.908072   1.000000
   45       -4.855465   1.000000
   46       -4.769519   1.000000
   47       -4.700038   1.000000
   48       -4.626964   1.000000
   49       -4.435045   1.000000
   50       -4.381060   1.000000
   51       -4.318162   1.000000
   52       -4.258240   1.000000
   53       -4.145113   1.000000
   54       -4.056596   1.000000
   55       -3.994697   1.000000
   56       -3.926122   1.000000
   57       -3.844676   1.000000
   58       -3.740371   1.000000
   59       -3.681877   1.000000
   60       -3.584423   1.000000
   61       -3.528059   1.000000
   62       -3.455674   1.000000
   63       -3.340511   1.000000
   64       -3.277958   1.000000
   65       -3.194918   1.000000
   66       -3.025402   1.000000
   67       -2.990956   1.000000
   68       -2.837063   1.000000
   69       -2.771212   1.000000
   70       -2.637080   1.000000
   71       -2.498373   1.000000
   72       -2.429020   1.000000
   73       -2.316991   1.000000
   74       -2.184937   1.000000
   75       -1.926816   1.000000
   76       -1.718961   1.000000
   77       -1.693312   1.000000
   78       -1.603095   1.000000
   79       -1.508005   1.000000
   80       -1.414024   1.000000
   81       -1.335378   1.000000
   82       -1.162484   1.000000
   83       -1.099054   1.000000
   84       -0.852628   1.000058
   85       -0.705516   1.002213
   86       -0.505079   1.033521
   87       -0.427904   1.020596
   88       -0.267777   0.633822
   89       -0.160775   0.206294
   90       -0.044720  -0.019790
   91        0.033191  -0.033592
   92        0.077050  -0.024744
   93        0.180031  -0.006150
   94        0.299914  -0.000504
   95        0.432455  -0.000012
   96        0.518295  -0.000001
   97        0.560626  -0.000000
   98        0.582204  -0.000000
   99        0.698883  -0.000000
  100        0.727039  -0.000000
  101        0.793248  -0.000000
  102        0.855690  -0.000000
  103        0.998827  -0.000000
  104        1.100285  -0.000000
  105        1.140330  -0.000000
  106        1.185920  -0.000000
  107        1.232673  -0.000000
  108        1.261554  -0.000000
  109        1.354915  -0.000000
  110        1.399447  -0.000000
  111        1.469144  -0.000000
  112        1.583586  -0.000000
  113        1.739093  -0.000000
  114        1.891122  -0.000000

  0.1111111E+00  0.9090909E-01  0.4822234E-15  0.6734007E-02
    1      -13.932494   1.000000
    2      -12.751812   1.000000
    3      -12.608378   1.000000
    4      -11.876082   1.000000
    5      -11.548109   1.000000
    6      -11.422088   1.000000
    7      -11.256747   1.000000
    8      -11.143280   1.000000
    9      -10.867249   1.000000
   10      -10.608077   1.000000
   11      -10.490253   1.000000
   12      -10.378813   1.000000
   13      -10.282697   1.000000
   14      -10.207145   1.000000
   15       -9.654331   1.000000
   16       -9.531691   1.000000
   17       -9.137592   1.000000
   18       -8.933396   1.000000
   19       -8.796397   1.000000
   20       -8.608089   1.000000
   21       -8.450748   1.000000
   22       -8.177294   1.000000
   23       -8.045181   1.000000
   24       -7.905853   1.000000
   25       -7.659146   1.000000
   26       -7.560801   1.000000
   27       -7.367399   1.000000
   28       -7.193324   1.000000
   29       -6.620053   1.000000
   30       -6.499263   1.000000
   31       -6.287647   1.000000
   32       -6.209035   1.000000
   33       -6.069167   1.000000
   34       -5.983102   1.000000
   35       -5.900216   1.000000
   36       -5.775758   1.000000
   37       -5.571567   1.000000
   38       -5.396928   1.000000
   39       -5.335044   1.000000
   40       -5.255335   1.000000
   41       -5.171699   1.000000
   42       -5.071042   1.000000
   43       -4.973088   1.000000
   44       -4.910035   1.000000
   45       -4.802494   1.000000
   46       -4.739670   1.000000
   47       -4.714245   1.000000
   48       -4.590140   1.000000
   49       -4.424945   1.000000
   50       -4.345370   1.000000
   51       -4.321869   1.000000
   52       -4.225927   1.000000
   53       -4.145061   1.000000
   54       -4.083505   1.000000
   55       -3.992612   1.000000
   56       -3.937328   1.000000
   57       -3.833811   1.000000
   58       -3.771786   1.000000
   59       -3.684815   1.000000
   60       -3.598188   1.000000
   61       -3.574632   1.000000
   62       -3.470332   1.000000
   63       -3.410877   1.000000
   64       -3.287392   1.000000
   65       -3.178494   1.000000
   66       -3.014527   1.000000
   67       -2.915387   1.000000
   68       -2.829480   1.000000
   69       -2.780228   1.000000
   70       -2.721621   1.000000
   71       -2.560376   1.000000
   72       -2.411504   1.000000
   73       -2.272309   1.000000
   74       -2.172906   1.000000
   75       -2.048025   1.000000
   76       -1.704885   1.000000
   77       -1.639982   1.000000
   78       -1.616003   1.000000
   79       -1.471443   1.000000
   80       -1.377978   1.000000
   81       -1.266962   1.000000
   82       -1.175906   1.000000
   83       -1.080308   1.000000
   84       -0.903402   1.000012
   85       -0.682022   1.003527
   86       -0.476083   1.035375
   87       -0.433879   1.024158
   88       -0.272722   0.653727
   89       -0.134434   0.126454
   90       -0.053437  -0.013306
   91        0.022383  -0.034851
   92        0.085759  -0.022729
   93        0.211345  -0.003479
   94        0.276365  -0.000881
   95        0.394730  -0.000039
   96        0.512539  -0.000001
   97        0.551562  -0.000000
   98        0.605847  -0.000000
   99        0.707601  -0.000000
  100        0.732437  -0.000000
  101        0.805254  -0.000000
  102        0.881370  -0.000000
  103        1.036828  -0.000000
  104        1.116150  -0.000000
  105        1.164954  -0.000000
  106        1.217765  -0.000000
  107        1.247530  -0.000000
  108        1.270057  -0.000000
  109        1.357912  -0.000000
  110        1.399960  -0.000000
  111        1.456791  -0.000000
  112        1.560720  -0.000000
  113        1.621783  -0.000000
  114        1.811514  -0.000000

  0.2222222E+00  0.9090909E-01  0.3065600E-15  0.6734007E-02
    1      -13.847880   1.000000
    2      -12.920223   1.000000
    3      -12.606320   1.000000
    4      -11.817322   1.000000
    5      -11.553113   1.000000
    6      -11.437803   1.000000
    7      -11.288873   1.000000
    8      -11.155871   1.000000
    9      -10.807941   1.000000
   10      -10.600016   1.000000
   11      -10.474639   1.000000
   12      -10.381509   1.000000
   13      -10.215290   1.000000
   14      -10.184313   1.000000
   15       -9.664080   1.000000
   16       -9.519481   1.000000
   17       -9.165773   1.000000
   18       -8.864441   1.000000
   19       -8.814969   1.000000
   20       -8.741320   1.000000
   21       -8.461366   1.000000
   22       -8.300901   1.000000
   23       -8.051730   1.000000
   24       -7.915404   1.000000
   25       -7.669921   1.000000
   26       -7.531584   1.000000
   27       -7.398243   1.000000
   28       -7.213258   1.000000
   29       -6.626002   1.000000
   30       -6.477987   1.000000
   31       -6.274209   1.000000
   32       -6.179974   1.000000
   33       -6.045722   1.000000
   34       -5.915266   1.000000
   35       -5.883539   1.000000
   36       -5.678670   1.000000
   37       -5.527157   1.000000
   38       -5.421492   1.000000
   39       -5.321991   1.000000
   40       -5.243337   1.000000
   41       -5.122138   1.000000
   42       -5.037697   1.000000
   43       -4.996578   1.000000
   44       -4.891303   1.000000
   45       -4.801979   1.000000
   46       -4.719484   1.000000
   47       -4.676784   1.000000
   48       -4.507887   1.000000
   49       -4.442519   1.000000
   50       -4.376080   1.000000
   51       -4.291274   1.000000
   52       -4.229677   1.000000
   53       -4.152144   1.000000
   54       -4.030234   1.000000
   55       -4.000081   1.000000
   56       -3.937875   1.000000
   57       -3.845362   1.000000
   58       -3.791006   1.000000
   59       -3.683584   1.000000
   60       -3.641938   1.000000
   61       -3.598082   1.000000
   62       -3.516415   1.000000
   63       -3.464671   1.000000
   64       -3.303747   1.000000
   65       -3.170260   1.000000
   66       -3.047414   1.000000
   67       -2.935630   1.000000
   68       -2.860285   1.000000
   69       -2.785161   1.000000
   70       -2.714145   1.000000
   71       -2.629399   1.000000
   72       -2.367919   1.000000
   73       -2.254993   1.000000
   74       -2.197783   1.000000
   75       -2.089490   1.000000
   76       -1.726468   1.000000
   77       -1.678435   1.000000
   78       -1.567188   1.000000
   79       -1.467544   1.000000
   80       -1.338400   1.000000
   81       -1.184516   1.000000
   82       -1.111909   1.000000
   83       -1.023313   1.000000
   84       -0.937358   1.000004
   85       -0.679247   1.003718
   86       -0.505614   1.033443
   87       -0.432751   1.023530
   88       -0.252119   0.569227
   89       -0.129991   0.114635
   90       -0.037630  -0.024095