 running on   48 total cores
 distrk:  each k-point on   48 cores,    1 groups
 distr:  one band on    8 cores,    6 groups
 using from now: INCAR     
 vasp.5.4.4.18Apr17-6-g9f103f2a35 (build Dec  7 2020 12:43:57) complex           
 POSCAR found type information on POSCAR  Mo V  B  H 
 POSCAR found :  4 types and      48 ions
 scaLAPACK will be used

 ----------------------------------------------------------------------------- 
|                                                                             |
|  ADVICE TO THIS USER RUNNING 'VASP/VAMP'   (HEAR YOUR MASTER'S VOICE ...):  |
|                                                                             |
|      You enforced a specific xc-type in the INCAR file,                     |
|      a different type was found on the POTCAR file                          |
|          I HOPE YOU KNOW, WHAT YOU ARE  DOING                               |
|                                                                             |
 ----------------------------------------------------------------------------- 

 LDA part: xc-table for Pade appr. of Perdew
 POSCAR, INCAR and KPOINTS ok, starting setup
 resort distribution
 resort distribution
 resort distribution
 resort distribution
 resort distribution
 resort distribution
 resort distribution
 resort distribution
 resort distribution
 resort distribution
 resort distribution
 resort distribution
 resort distribution
 resort distribution
 resort distribution
 resort distribution
 resort distribution
 resort distribution
 resort distribution
 resort distribution
 resort distribution
 resort distribution
 resort distribution
 resort distribution
 resort distribution
 resort distribution
 resort distribution
 resort distribution
 resort distribution
 resort distribution
 resort distribution
 resort distribution
 resort distribution
 resort distribution
 resort distribution
 resort distribution
 resort distribution
 resort distribution
 resort distribution
 resort distribution
 resort distribution
 resort distribution
 resort distribution
 resort distribution
 resort distribution
 resort distribution
 resort distribution
 resort distribution
 FFT: planning ...
 WAVECAR not read
 augmentation electrons   178.07797307139202     
 soft         electrons   0.0000000000000000     
 augmentation electrons   178.07797307139202     
 soft         electrons   0.0000000000000000     
 augmentation electrons   178.07797307139202     
 augmentation electrons   178.07797307139202     
 soft         electrons   0.0000000000000000     
 augmentation electrons   178.07797307139202     
 soft         electrons   0.0000000000000000     
 augmentation electrons   178.07797307139202     
 soft         electrons   0.0000000000000000     
 augmentation electrons   178.07797307139202     
 soft         electrons   0.0000000000000000     
 augmentation electrons   178.07797307139202     
 soft         electrons   0.0000000000000000     
 augmentation electrons   178.07797307139202     
 soft         electrons   0.0000000000000000     
 augmentation electrons   178.07797307139202     
 soft         electrons   0.0000000000000000     
 augmentation electrons   178.07797307139202     
 soft         electrons   0.0000000000000000     
 augmentation electrons   178.07797307139202     
 soft         electrons   0.0000000000000000     
 augmentation electrons   178.07797307139202     
 soft         electrons   0.0000000000000000     
 augmentation electrons   178.07797307139202     
 soft         electrons   0.0000000000000000     
 augmentation electrons   178.07797307139202     
 soft         electrons   0.0000000000000000     
 soft         electrons   0.0000000000000000     
 augmentation electrons   178.07797307139202     
 soft         electrons   0.0000000000000000     
 augmentation electrons   178.07797307139202     
 soft         electrons   0.0000000000000000     
 augmentation electrons   178.07797307139202     
 soft         electrons   0.0000000000000000     
 augmentation electrons   178.07797307139202     
 soft         electrons   0.0000000000000000     
 augmentation electrons   178.07797307139202     
 soft         electrons   0.0000000000000000     
 augmentation electrons   178.07797307139202     
 soft         electrons   0.0000000000000000     
 augmentation electrons   178.07797307139202     
 soft         electrons   0.0000000000000000     
 augmentation electrons   178.07797307139202     
 soft         electrons   0.0000000000000000     
 augmentation electrons   178.07797307139202     
 soft         electrons   0.0000000000000000     
 augmentation electrons   178.07797307139202     
 soft         electrons   0.0000000000000000     
 augmentation electrons   178.07797307139202     
 soft         electrons   0.0000000000000000     
 augmentation electrons   178.07797307139202     
 soft         electrons   0.0000000000000000     
 augmentation electrons   178.07797307139202     
 soft         electrons   0.0000000000000000     
 augmentation electrons   178.07797307139202     
 soft         electrons   0.0000000000000000     
 augmentation electrons   178.07797307139202     
 soft         electrons   0.0000000000000000     
 augmentation electrons   178.07797307139202     
 soft         electrons   0.0000000000000000     
 augmentation electrons   178.07797307139202     
 soft         electrons   0.0000000000000000     
 augmentation electrons   178.07797307139202     
 soft         electrons   0.0000000000000000     
 augmentation electrons   178.07797307139202     
 soft         electrons   0.0000000000000000     
 augmentation electrons   178.07797307139202     
 soft         electrons   0.0000000000000000     
 augmentation electrons   178.07797307139202     
 soft         electrons   0.0000000000000000     
 augmentation electrons   178.07797307139202     
 soft         electrons   0.0000000000000000     
 augmentation electrons   178.07797307139202     
 soft         electrons   0.0000000000000000     
 augmentation electrons   178.07797307139202     
 soft         electrons   0.0000000000000000     
 augmentation electrons   178.07797307139202     
 soft         electrons   0.0000000000000000     
 augmentation electrons   178.07797307139202     
 soft         electrons   0.0000000000000000     
 augmentation electrons   178.07797307139202     
 soft         electrons   0.0000000000000000     
 augmentation electrons   178.07797307139202     
 soft         electrons   0.0000000000000000     
 augmentation electrons   178.07797307139202     
 soft         electrons   0.0000000000000000     
 augmentation electrons   178.07797307139202     
 soft         electrons   0.0000000000000000     
 augmentation electrons   178.07797307139202     
 soft         electrons   0.0000000000000000     
 augmentation electrons   178.07797307139202     
 soft         electrons   0.0000000000000000     
 augmentation electrons   178.07797307139202     
 soft         electrons   0.0000000000000000     
 total        electrons   178.07797307139202     
 total        electrons   178.07797307139202     
 total        electrons   178.07797307139202     
 total        electrons   178.07797307139202     
 total        electrons   178.07797307139202     
 total        electrons   178.07797307139202     
 total        electrons   178.07797307139202     
 total        electrons   178.07797307139202     
 total        electrons   178.07797307139202     
 total        electrons   178.07797307139202     
 total        electrons   178.07797307139202     
 total        electrons   178.07797307139202     
 total        electrons   178.07797307139202     
 total        electrons   178.07797307139202     
 total        electrons   178.07797307139202     
 total        electrons   178.07797307139202     
 total        electrons   178.07797307139202     
 total        electrons   178.07797307139202     
 total        electrons   178.07797307139202     
 total        electrons   178.07797307139202     
 total        electrons   178.07797307139202     
 total        electrons   178.07797307139202     
 total        electrons   178.07797307139202     
 total        electrons   178.07797307139202     
 total        electrons   178.07797307139202     
 total        electrons   178.07797307139202     
 total        electrons   178.07797307139202     
 total        electrons   178.07797307139202     
 total        electrons   178.07797307139202     
 total        electrons   178.07797307139202     
 total        electrons   178.07797307139202     
 total        electrons   178.07797307139202     
 total        electrons   178.07797307139202     
 total        electrons   178.07797307139202     
 total        electrons   178.07797307139202     
 total        electrons   178.07797307139202     
 total        electrons   178.07797307139202     
 total        electrons   178.07797307139202     
 total        electrons   178.07797307139202     
 total        electrons   178.07797307139202     
 total        electrons   178.07797307139202     
 total        electrons   178.07797307139202     
 total        electrons   178.07797307139202     
 total        electrons   178.07797307139202     
 total        electrons   178.07797307139202     
 total        electrons   178.07797307139202     
 total        electrons   178.07797307139202     
 total        electrons   178.07797307139202     
 augmentation electrons   1106.0944788596130     
 soft         electrons   0.0000000000000000     
 augmentation electrons   1106.0944788596130     
 soft         electrons   0.0000000000000000     
 augmentation electrons   1106.0944788596130     
 soft         electrons   0.0000000000000000     
 augmentation electrons   1106.0944788596130     
 soft         electrons   0.0000000000000000     
 augmentation electrons   1106.0944788596130     
 soft         electrons   0.0000000000000000     
 augmentation electrons   1106.0944788596130     
 soft         electrons   0.0000000000000000     
 augmentation electrons   1106.0944788596130     
 soft         electrons   0.0000000000000000     
 augmentation electrons   1106.0944788596130     
 soft         electrons   0.0000000000000000     
 augmentation electrons   1106.0944788596130     
 soft         electrons   0.0000000000000000     
 augmentation electrons   1106.0944788596130     
 soft         electrons   0.0000000000000000     
 augmentation electrons   1106.0944788596130     
 soft         electrons   0.0000000000000000     
 augmentation electrons   1106.0944788596130     
 soft         electrons   0.0000000000000000     
 augmentation electrons   1106.0944788596130     
 soft         electrons   0.0000000000000000     
 augmentation electrons   1106.0944788596130     
 soft         electrons   0.0000000000000000     
 augmentation electrons   1106.0944788596130     
 soft         electrons   0.0000000000000000     
 augmentation electrons   1106.0944788596130     
 soft         electrons   0.0000000000000000     
 augmentation electrons   1106.0944788596130     
 soft         electrons   0.0000000000000000     
 augmentation electrons   1106.0944788596130     
 soft         electrons   0.0000000000000000     
 augmentation electrons   1106.0944788596130     
 soft         electrons   0.0000000000000000     
 augmentation electrons   1106.0944788596130     
 soft         electrons   0.0000000000000000     
 augmentation electrons   1106.0944788596130     
 soft         electrons   0.0000000000000000     
 augmentation electrons   1106.0944788596130     
 soft         electrons   0.0000000000000000     
 augmentation electrons   1106.0944788596130     
 soft         electrons   0.0000000000000000     
 augmentation electrons   1106.0944788596130     
 soft         electrons   0.0000000000000000     
 augmentation electrons   1106.0944788596130     
 soft         electrons   0.0000000000000000     
 augmentation electrons   1106.0944788596130     
 soft         electrons   0.0000000000000000     
 augmentation electrons   1106.0944788596130     
 soft         electrons   0.0000000000000000     
 augmentation electrons   1106.0944788596130     
 augmentation electrons   1106.0944788596130     
 soft         electrons   0.0000000000000000     
 augmentation electrons   1106.0944788596130     
 soft         electrons   0.0000000000000000     
 augmentation electrons   1106.0944788596130     
 soft         electrons   0.0000000000000000     
 augmentation electrons   1106.0944788596130     
 soft         electrons   0.0000000000000000     
 augmentation electrons   1106.0944788596130     
 soft         electrons   0.0000000000000000     
 augmentation electrons   1106.0944788596130     
 soft         electrons   0.0000000000000000     
 augmentation electrons   1106.0944788596130     
 soft         electrons   0.0000000000000000     
 augmentation electrons   1106.0944788596130     
 soft         electrons   0.0000000000000000     
 augmentation electrons   1106.0944788596130     
 soft         electrons   0.0000000000000000     
 augmentation electrons   1106.0944788596130     
 soft         electrons   0.0000000000000000     
 augmentation electrons   1106.0944788596130     
 soft         electrons   0.0000000000000000     
 augmentation electrons   1106.0944788596130     
 soft         electrons   0.0000000000000000     
 augmentation electrons   1106.0944788596130     
 soft         electrons   0.0000000000000000     
 augmentation electrons   1106.0944788596130     
 soft         electrons   0.0000000000000000     
 augmentation electrons   1106.0944788596130     
 soft         electrons   0.0000000000000000     
 augmentation electrons   1106.0944788596130     
 soft         electrons   0.0000000000000000     
 augmentation electrons   1106.0944788596130     
 soft         electrons   0.0000000000000000     
 augmentation electrons   1106.0944788596130     
 soft         electrons   0.0000000000000000     
 augmentation electrons   1106.0944788596130     
 soft         electrons   0.0000000000000000     
 augmentation electrons   1106.0944788596130     
 soft         electrons   0.0000000000000000     
 soft         electrons   0.0000000000000000     
 total        electrons   1106.0944788596130     
 total        electrons   1106.0944788596130     
 total        electrons   1106.0944788596130     
 total        electrons   1106.0944788596130     
 total        electrons   1106.0944788596130     
 total        electrons   1106.0944788596130     
 total        electrons   1106.0944788596130     
 total        electrons   1106.0944788596130     
 total        electrons   1106.0944788596130     
 total        electrons   1106.0944788596130     
 total        electrons   1106.0944788596130     
 total        electrons   1106.0944788596130     
 total        electrons   1106.0944788596130     
 total        electrons   1106.0944788596130     
 total        electrons   1106.0944788596130     
 total        electrons   1106.0944788596130     
 total        electrons   1106.0944788596130     
 total        electrons   1106.0944788596130     
 total        electrons   1106.0944788596130     
 total        electrons   1106.0944788596130     
 total        electrons   1106.0944788596130     
 total        electrons   1106.0944788596130     
 total        electrons   1106.0944788596130     
 total        electrons   1106.0944788596130     
 total        electrons   1106.0944788596130     
 total        electrons   1106.0944788596130     
 total        electrons   1106.0944788596130     
 total        electrons   1106.0944788596130     
 total        electrons   1106.0944788596130     
 total        electrons   1106.0944788596130     
 total        electrons   1106.0944788596130     
 total        electrons   1106.0944788596130     
 total        electrons   1106.0944788596130     
 total        electrons   1106.0944788596130     
 total        electrons   1106.0944788596130     
 total        electrons   1106.0944788596130     
 total        electrons   1106.0944788596130     
 total        electrons   1106.0944788596130     
 total        electrons   1106.0944788596130     
 total        electrons   1106.0944788596130     
 total        electrons   1106.0944788596130     
 total        electrons   1106.0944788596130     
 total        electrons   1106.0944788596130     
 total        electrons   1106.0944788596130     
 total        electrons   1106.0944788596130     
 total        electrons   1106.0944788596130     
 total        electrons   1106.0944788596130     
 total        electrons   1106.0944788596130     
 entering main loop
       N       E                     dE             d eps       ncg     rms          rms(c)
DAV:   1     0.151379371050E+04    0.15138E+04   -0.63612E+04 33972   0.125E+03
DAV:   2    -0.151455732848E+03   -0.16652E+04   -0.15783E+04 41754   0.293E+02
DAV:   3    -0.405429322421E+03   -0.25397E+03   -0.24462E+03 47244   0.135E+02
DAV:   4    -0.425469933718E+03   -0.20041E+02   -0.19429E+02 55404   0.422E+01
DAV:   5    -0.426437086741E+03   -0.96715E+00   -0.94697E+00 57204   0.849E+00    0.108E+02
RMM:   6    -0.386737830248E+03    0.39699E+02   -0.76217E+02 54907   0.928E+01    0.508E+01
RMM:   7    -0.401441726610E+03   -0.14704E+02   -0.26582E+02 36418   0.852E+01    0.373E+01
RMM:   8    -0.364344031906E+03    0.37098E+02   -0.77169E+01 44527   0.266E+01    0.232E+01
RMM:   9    -0.364527942835E+03   -0.18391E+00   -0.61977E+01 49138   0.176E+01    0.192E+01
RMM:  10    -0.356314833111E+03    0.82131E+01   -0.10308E+01 43593   0.121E+01    0.132E+01
RMM:  11    -0.356402309142E+03   -0.87476E-01   -0.35108E+00 40767   0.808E+00    0.120E+01
RMM:  12    -0.356268914657E+03    0.13339E+00   -0.20621E+00 52192   0.284E+00    0.104E+01
RMM:  13    -0.355995249191E+03    0.27367E+00   -0.95450E-01 38906   0.367E+00    0.880E+00
RMM:  14    -0.355468269594E+03    0.52698E+00   -0.26072E+00 39190   0.668E+00    0.406E+00
RMM:  15    -0.355382926833E+03    0.85343E-01   -0.11425E+00 52827   0.206E+00    0.236E+00
RMM:  16    -0.355337290797E+03    0.45636E-01   -0.22362E-01 42574   0.181E+00    0.162E+00
RMM:  17    -0.355322830540E+03    0.14460E-01   -0.13587E-01 46386   0.128E+00    0.120E+00
RMM:  18    -0.355313889053E+03    0.89415E-02   -0.11651E-01 42421   0.121E+00    0.102E+00
RMM:  19    -0.355302370999E+03    0.11518E-01   -0.44276E-02 44783   0.690E-01    0.487E-01
RMM:  20    -0.355301968289E+03    0.40271E-03   -0.36555E-02 50455   0.473E-01    0.530E-01
RMM:  21    -0.355298448830E+03    0.35195E-02   -0.80357E-03 40350   0.352E-01    0.192E-01
RMM:  22    -0.355299215003E+03   -0.76617E-03   -0.70910E-03 52623   0.167E-01    0.127E-01
RMM:  23    -0.355299965223E+03   -0.75022E-03   -0.17761E-03 51269   0.939E-02    0.155E-01
RMM:  24    -0.355300135468E+03   -0.17024E-03   -0.88535E-04 41948   0.111E-01    0.543E-02
RMM:  25    -0.355301209931E+03   -0.10745E-02   -0.83298E-04 41550   0.679E-02    0.661E-02
RMM:  26    -0.355301792961E+03   -0.58303E-03   -0.41086E-04 46582   0.536E-02    0.271E-02
RMM:  27    -0.355302255251E+03   -0.46229E-03   -0.20702E-04 47865   0.286E-02    0.220E-02
RMM:  28    -0.355302398774E+03   -0.14352E-03   -0.61757E-05 45273   0.181E-02    0.153E-02
RMM:  29    -0.355302488602E+03   -0.89828E-04   -0.38182E-05 39355   0.207E-02    0.158E-02
RMM:  30    -0.355302518660E+03   -0.30058E-04   -0.15312E-05 34046   0.137E-02    0.526E-03
RMM:  31    -0.355302567448E+03   -0.48788E-04   -0.91179E-06 35467   0.599E-03    0.346E-03
RMM:  32    -0.355302609864E+03   -0.42417E-04   -0.58906E-06 29840   0.642E-03    0.555E-03
RMM:  33    -0.355302659902E+03   -0.50038E-04   -0.42716E-06 30188   0.696E-03    0.429E-03
RMM:  34    -0.355302684265E+03   -0.24363E-04   -0.22084E-06 28733   0.585E-03    0.298E-03
RMM:  35    -0.355302704152E+03   -0.19886E-04   -0.19313E-06 28411   0.292E-03    0.197E-03
RMM:  36    -0.355302713907E+03   -0.97550E-05   -0.66713E-07 24841   0.286E-03    0.130E-03
RMM:  37    -0.355302718912E+03   -0.50049E-05   -0.50533E-07 21137   0.212E-03    0.752E-04
RMM:  38    -0.355302722157E+03   -0.32457E-05   -0.33468E-07 19496   0.181E-03    0.855E-04
RMM:  39    -0.355302724591E+03   -0.24333E-05   -0.29181E-07 18248   0.154E-03    0.411E-04
RMM:  40    -0.355302725771E+03   -0.11806E-05   -0.21629E-07 18265   0.156E-03    0.401E-04
RMM:  41    -0.355302726261E+03   -0.48971E-06   -0.14314E-07 13332   0.107E-03
   1 F= -.35530273E+03 E0= -.35530595E+03  d E =0.968127E-02
 augmentation electrons   18.611699979967440     
 soft         electrons   159.52065335439147     
 augmentation electrons   18.611699979967440     
 soft         electrons   159.52065335439147     
 augmentation electrons   18.611699979967440     
 soft         electrons   159.52065335439147     
 augmentation electrons   18.611699979967440     
 soft         electrons   159.52065335439147     
 augmentation electrons   18.611699979967440     
 soft         electrons   159.52065335439147     
 augmentation electrons   18.611699979967440     
 soft         electrons   159.52065335439147     
 augmentation electrons   18.611699979967440     
 soft         electrons   159.52065335439147     
 augmentation electrons   18.611699979967440     
 soft         electrons   159.52065335439147     
 augmentation electrons   18.611699979967440     
 soft         electrons   159.52065335439147     
 augmentation electrons   18.611699979967440     
 soft         electrons   159.52065335439147     
 augmentation electrons   18.611699979967440     
 soft         electrons   159.52065335439147     
 augmentation electrons   18.611699979967440     
 soft         electrons   159.52065335439147     
 augmentation electrons   18.611699979967440     
 soft         electrons   159.52065335439147     
 augmentation electrons   18.611699979967440     
 soft         electrons   159.52065335439147     
 augmentation electrons   18.611699979967440     
 soft         electrons   159.52065335439147     
 augmentation electrons   18.611699979967440     
 soft         electrons   159.52065335439147     
 augmentation electrons   18.611699979967440     
 soft         electrons   159.52065335439147     
 augmentation electrons   18.611699979967440     
 soft         electrons   159.52065335439147     
 augmentation electrons   18.611699979967440     
 soft         electrons   159.52065335439147     
 augmentation electrons   18.611699979967440     
 soft         electrons   159.52065335439147     
 augmentation electrons   18.611699979967440     
 soft         electrons   159.52065335439147     
 augmentation electrons   18.611699979967440     
 soft         electrons   159.52065335439147     
 augmentation electrons   18.611699979967440     
 soft         electrons   159.52065335439147     
 augmentation electrons   18.611699979967440     
 soft         electrons   159.52065335439147     
 augmentation electrons   18.611699979967440     
 soft         electrons   159.52065335439147     
 augmentation electrons   18.611699979967440     
 soft         electrons   159.52065335439147     
 augmentation electrons   18.611699979967440     
 soft         electrons   159.52065335439147     
 augmentation electrons   18.611699979967440     
 soft         electrons   159.52065335439147     
 augmentation electrons   18.611699979967440     
 soft         electrons   159.52065335439147     
 augmentation electrons   18.611699979967440     
 soft         electrons   159.52065335439147     
 augmentation electrons   18.611699979967440     
 soft         electrons   159.52065335439147     
 augmentation electrons   18.611699979967440     
 augmentation electrons   18.611699979967440     
 soft         electrons   159.52065335439147     
 augmentation electrons   18.611699979967440     
 soft         electrons   159.52065335439147     
 augmentation electrons   18.611699979967440     
 soft         electrons   159.52065335439147     
 augmentation electrons   18.611699979967440     
 soft         electrons   159.52065335439147     
 augmentation electrons   18.611699979967440     
 soft         electrons   159.52065335439147     
 augmentation electrons   18.611699979967440     
 soft         electrons   159.52065335439147     
 augmentation electrons   18.611699979967440     
 soft         electrons   159.52065335439147     
 augmentation electrons   18.611699979967440     
 soft         electrons   159.52065335439147     
 augmentation electrons   18.611699979967440     
 soft         electrons   159.52065335439147     
 augmentation electrons   18.611699979967440     
 soft         electrons   159.52065335439147     
 augmentation electrons   18.611699979967440     
 soft         electrons   159.52065335439147     
 augmentation electrons   18.611699979967440     
 soft         electrons   159.52065335439147     
 augmentation electrons   18.611699979967440     
 soft         electrons   159.52065335439147     
 augmentation electrons   18.611699979967440     
 soft         electrons   159.52065335439147     
 augmentation electrons   18.611699979967440     
 soft         electrons   159.52065335439147     
 augmentation electrons   18.611699979967440     
 soft         electrons   159.52065335439147     
 soft         electrons   159.52065335439147     
 total        electrons   178.13235333435892     
 total        electrons   178.13235333435892     
 total        electrons   178.13235333435892     
 total        electrons   178.13235333435892     
 total        electrons   178.13235333435892     
 total        electrons   178.13235333435892     
 total        electrons   178.13235333435892     
 total        electrons   178.13235333435892     
 total        electrons   178.13235333435892     
 total        electrons   178.13235333435892     
 total        electrons   178.13235333435892     
 total        electrons   178.13235333435892     
 total        electrons   178.13235333435892     
 total        electrons   178.13235333435892     
 total        electrons   178.13235333435892     
 total        electrons   178.13235333435892     
 total        electrons   178.13235333435892     
 total        electrons   178.13235333435892     
 total        electrons   178.13235333435892     
 total        electrons   178.13235333435892     
 total        electrons   178.13235333435892     
 total        electrons   178.13235333435892     
 total        electrons   178.13235333435892     
 total        electrons   178.13235333435892     
 total        electrons   178.13235333435892     
 total        electrons   178.13235333435892     
 total        electrons   178.13235333435892     
 total        electrons   178.13235333435892     
 total        electrons   178.13235333435892     
 total        electrons   178.13235333435892     
 total        electrons   178.13235333435892     
 total        electrons   178.13235333435892     
 total        electrons   178.13235333435892     
 total        electrons   178.13235333435892     
 total        electrons   178.13235333435892     
 total        electrons   178.13235333435892     
 total        electrons   178.13235333435892     
 total        electrons   178.13235333435892     
 total        electrons   178.13235333435892     
 total        electrons   178.13235333435892     
 total        electrons   178.13235333435892     
 total        electrons   178.13235333435892     
 total        electrons   178.13235333435892     
 total        electrons   178.13235333435892     
 total        electrons   178.13235333435892     
 total        electrons   178.13235333435892     
 total        electrons   178.13235333435892     
 total        electrons   178.13235333435892     
Note: The following floating-point exceptions are signalling: IEEE_OVERFLOW_FLAG
Note: The following floating-point exceptions are signalling: IEEE_OVERFLOW_FLAG
Note: The following floating-point exceptions are signalling: IEEE_OVERFLOW_FLAG
Note: The following floating-point exceptions are signalling: IEEE_OVERFLOW_FLAG
Note: The following floating-point exceptions are signalling: IEEE_OVERFLOW_FLAG
Note: The following floating-point exceptions are signalling: IEEE_OVERFLOW_FLAG
Note: The following floating-point exceptions are signalling: IEEE_OVERFLOW_FLAG
Note: The following floating-point exceptions are signalling: IEEE_OVERFLOW_FLAG
Note: The following floating-point exceptions are signalling: IEEE_OVERFLOW_FLAG
Note: The following floating-point exceptions are signalling: IEEE_OVERFLOW_FLAG
Note: The following floating-point exceptions are signalling: IEEE_OVERFLOW_FLAG
Note: The following floating-point exceptions are signalling: IEEE_OVERFLOW_FLAG
Note: The following floating-point exceptions are signalling: IEEE_OVERFLOW_FLAG
Note: The following floating-point exceptions are signalling: IEEE_OVERFLOW_FLAG
Note: The following floating-point exceptions are signalling: IEEE_OVERFLOW_FLAG
Note: The following floating-point exceptions are signalling: IEEE_OVERFLOW_FLAG
Note: The following floating-point exceptions are signalling: IEEE_OVERFLOW_FLAG
Note: The following floating-point exceptions are signalling: IEEE_OVERFLOW_FLAG
Note: The following floating-point exceptions are signalling: IEEE_OVERFLOW_FLAG
Note: The following floating-point exceptions are signalling: IEEE_OVERFLOW_FLAG
Note: The following floating-point exceptions are signalling: IEEE_OVERFLOW_FLAG
Note: The following floating-point exceptions are signalling: IEEE_OVERFLOW_FLAG
Note: The following floating-point exceptions are signalling: IEEE_OVERFLOW_FLAG
Note: The following floating-point exceptions are signalling: IEEE_OVERFLOW_FLAG
Note: The following floating-point exceptions are signalling: IEEE_OVERFLOW_FLAG
Note: The following floating-point exceptions are signalling: IEEE_OVERFLOW_FLAG
Note: The following floating-point exceptions are signalling: IEEE_OVERFLOW_FLAG
Note: The following floating-point exceptions are signalling: IEEE_OVERFLOW_FLAG
Note: The following floating-point exceptions are signalling: IEEE_OVERFLOW_FLAG
Note: The following floating-point exceptions are signalling: IEEE_OVERFLOW_FLAG
Note: The following floating-point exceptions are signalling: IEEE_OVERFLOW_FLAG
Note: The following floating-point exceptions are signalling: IEEE_OVERFLOW_FLAG
Note: The following floating-point exceptions are signalling: IEEE_OVERFLOW_FLAG
Note: The following floating-point exceptions are signalling: IEEE_OVERFLOW_FLAG
Note: The following floating-point exceptions are signalling: IEEE_OVERFLOW_FLAG
Note: The following floating-point exceptions are signalling: IEEE_OVERFLOW_FLAG
Note: The following floating-point exceptions are signalling: IEEE_OVERFLOW_FLAG
Note: The following floating-point exceptions are signalling: IEEE_OVERFLOW_FLAG
Note: The following floating-point exceptions are signalling: IEEE_OVERFLOW_FLAG
Note: The following floating-point exceptions are signalling: IEEE_OVERFLOW_FLAG
Note: The following floating-point exceptions are signalling: IEEE_OVERFLOW_FLAG
Note: The following floating-point exceptions are signalling: IEEE_OVERFLOW_FLAG
Note: The following floating-point exceptions are signalling: IEEE_OVERFLOW_FLAG
Note: The following floating-point exceptions are signalling: IEEE_OVERFLOW_FLAG
Note: The following floating-point exceptions are signalling: IEEE_OVERFLOW_FLAG
Note: The following floating-point exceptions are signalling: IEEE_OVERFLOW_FLAG
Note: The following floating-point exceptions are signalling: IEEE_OVERFLOW_FLAG
Note: The following floating-point exceptions are signalling: IEEE_OVERFLOW_FLAG
