  23   23    1    1
  1.9736122e+02   6.0776561e-10   6.0776109e-10   6.1750240e-10   5.0000000e-16
            1.000000e-04
  CAR
 DOS and projected DOS file by LOBSTER. Energy is shifted such that the Fermi level lies at 0 eV. 
     17.26314716      -7.78695304   501       8.24511109       1.00000000
-16.03206   0.00000   0.00000
-15.98196   0.00000   0.00000
-15.93186   0.00000   0.00000
-15.88176   0.00000   0.00000
-15.83166   0.00000   0.00000
-15.78156   0.00000   0.00000
-15.73146   0.00000   0.00000
-15.68136   0.00000   0.00000
-15.63126   0.00000   0.00000
-15.58116   0.00000   0.00000
-15.53106   0.00000   0.00000
-15.48096   0.00000   0.00000
-15.43086   0.00000   0.00000
-15.38076   0.00000   0.00000
-15.33066   0.00000   0.00000
-15.28056   0.00000   0.00000
-15.23046   0.00000   0.00000
-15.18036   0.00000   0.00000
-15.13026   0.00000   0.00000
-15.08016   0.00000   0.00000
-15.03006   0.00000   0.00000
-14.97996   0.00000   0.00000
-14.92986   0.00000   0.00000
-14.87976   0.00000   0.00000
-14.82966   0.00000   0.00000
-14.77956   0.00000   0.00000
-14.72946   0.00000   0.00000
-14.67936   0.00000   0.00000
-14.62926   0.00000   0.00000
-14.57916   0.00000   0.00000
-14.52906   0.00000   0.00000
-14.47896   0.00000   0.00000
-14.42886   0.00000   0.00000
-14.37876   0.00000   0.00000
-14.32866   0.05379   0.00270
-14.27856   0.33649   0.01955
-14.22846   0.49344   0.04427
-14.17836   0.61535   0.07510
-14.12826   0.70747   0.11055
-14.07816   0.81787   0.15152
-14.02806   0.90126   0.19668
-13.97796   0.97207   0.24538
-13.92786   1.05179   0.29807
-13.87776   1.14187   0.35528
-13.82766   1.21330   0.41607
-13.77756   1.28046   0.48022
-13.72745   1.35417   0.54806
-13.67735   1.43481   0.61995
-13.62725   1.53072   0.69664
-13.57715   1.71930   0.78277
-13.52705   1.75890   0.87090
-13.47695   1.81590   0.96187
-13.42685   1.90564   1.05735
-13.37675   2.00066   1.15758
-13.32665   1.96923   1.25624
-13.27655   2.05758   1.35932
-13.22645   1.99180   1.45911
-13.17635   1.90575   1.55459
-13.12625   1.83281   1.64641
-13.07615   1.79538   1.73636
-13.02605   1.66146   1.81960
-12.97595   1.68712   1.90413
-12.92585   1.85928   1.99728
-12.87575   2.19864   2.10743
-12.82565   2.52961   2.23416
-12.77555   2.76446   2.37266
-12.72545   2.80667   2.51328
-12.67535   2.77266   2.65219
-12.62525   2.96429   2.80070
-12.57515   3.34820   2.96845
-12.52505   3.30449   3.13400
-12.47495   3.28045   3.29835
-12.42485   2.61314   3.42927
-12.37475   2.50471   3.55476
-12.32465   2.75185   3.69263
-12.27455   3.23977   3.85494
-12.22445   3.80808   4.04573
-12.17435   4.49168   4.27076
-12.12425   4.46661   4.49454
-12.07415   4.73620   4.73182
-12.02405   5.00080   4.98236
-11.97395   5.02111   5.23392
-11.92385   5.36436   5.50268
-11.87375   4.90638   5.74849
-11.82365   4.87629   5.99279
-11.77355   4.56221   6.22136
-11.72345   4.35307   6.43945
-11.67335   3.98414   6.63905
-11.62325   4.22787   6.85087
-11.57315   4.88916   7.09582
-11.52305   5.90333   7.39158
-11.47295   6.10052   7.69721
-11.42285   6.29947   8.01282
-11.37275   6.73631   8.35031
-11.32265   7.00754   8.70139
-11.27255   7.65783   9.08505
-11.22244   6.80798   9.42613
-11.17234   5.97530   9.72549
-11.12224   5.53033  10.00256
-11.07214   5.26081  10.26613
-11.02204   5.19786  10.52654
-10.97194   6.09072  10.83169
-10.92184   4.79488  11.07192
-10.87174   4.00258  11.27245
-10.82164   3.77999  11.46182
-10.77154   3.72115  11.64825
-10.72144   3.40733  11.81896
-10.67134   3.24267  11.98142
-10.62124   3.67721  12.16565
-10.57114   4.89090  12.41068
-10.52104   5.39805  12.68113
-10.47094   5.73889  12.96865
-10.42084   6.23342  13.28094
-10.37074   6.04583  13.58384
-10.32064   6.12310  13.89061
-10.27054   5.91091  14.18675
-10.22044   5.97295  14.48599
-10.17034   4.73582  14.72326
-10.12024   3.67911  14.90758
-10.07014   3.15542  15.06567
-10.02004   2.94986  15.21346
 -9.96994   2.86105  15.35680
 -9.91984   2.93566  15.50387
 -9.86974   3.43113  15.67578
 -9.81964   2.68730  15.81041
 -9.76954   2.27047  15.92416
 -9.71944   2.16436  16.03260
 -9.66934   2.14106  16.13986
 -9.61924   2.22353  16.25126
 -9.56914   2.17442  16.36020
 -9.51904   2.12511  16.46667
 -9.46894   2.43560  16.58869
 -9.41884   1.84678  16.68122
 -9.36874   2.37839  16.80038
 -9.31864   2.95285  16.94831
 -9.26854   3.56524  17.12693
 -9.21844   3.78634  17.31663
 -9.16834   4.48912  17.54154
 -9.11824   4.68930  17.77647
 -9.06814   4.89838  18.02188
 -9.01804   4.90540  18.26764
 -8.96794   4.91314  18.51379
 -8.91784   5.21208  18.77492
 -8.86774   5.49014  19.04997
 -8.81764   5.61575  19.33132
 -8.76754   5.92185  19.62801
 -8.71743   5.65100  19.91113
 -8.66733   4.68107  20.14565
 -8.61723   4.37668  20.36492
 -8.56713   4.32764  20.58174
 -8.51703   3.89698  20.77698
 -8.46693   3.68012  20.96135
 -8.41683   4.36563  21.18007
 -8.36673   4.65013  21.41304
 -8.31663   4.63193  21.64510
 -8.26653   4.24618  21.85784
 -8.21643   4.38708  22.07763
 -8.16633   4.40160  22.29815
 -8.11623   4.46130  22.52166
 -8.06613   4.83413  22.76385
 -8.01603   5.07060  23.01789
 -7.96593   5.18208  23.27752
 -7.91583   5.30329  23.54321
 -7.86573   5.43867  23.81569
 -7.81563   5.65100  24.09881
 -7.76553   5.99270  24.39904
 -7.71543   5.58503  24.67885
 -7.66533   4.80085  24.91938
 -7.61523   4.55387  25.14753
 -7.56513   4.48092  25.37202
 -7.51503   4.49844  25.59739
 -7.46493   4.58873  25.82729
 -7.41483   4.72255  26.06389
 -7.36473   5.64270  26.34659
 -7.31463   5.34016  26.61413
 -7.26453   5.31969  26.88065
 -7.21443   5.30071  27.14622
 -7.16433   5.40438  27.41698
 -7.11423   5.65727  27.70041
 -7.06413   5.45317  27.97361
 -7.01403   5.16395  28.23233
 -6.96393   5.41137  28.50344
 -6.91383   5.29753  28.76885
 -6.86373   5.38540  29.03866
 -6.81363   5.11389  29.29486
 -6.76353   4.93883  29.54230
 -6.71343   5.62485  29.82411
 -6.66333   6.46487  30.14800
 -6.61323   6.48925  30.47311
 -6.56313   6.52365  30.79995
 -6.51303   6.51506  31.12635
 -6.46293   4.96787  31.37524
 -6.41283   5.67126  31.65937
 -6.36273   6.85548  32.00284
 -6.31263   7.05297  32.35619
 -6.26253   8.07910  32.76095
 -6.21242  10.59224  33.29163
 -6.16232  10.99154  33.84231
 -6.11222  11.20539  34.40370
 -6.06212  10.76869  34.94321
 -6.01202  11.58819  35.52378
 -5.96192  11.98344  36.12416
 -5.91182  11.57461  36.70405
 -5.86172  10.31322  37.22074
 -5.81162   9.52450  37.69792
 -5.76152   9.42979  38.17035
 -5.71142   9.51824  38.64722
 -5.66132   8.93121  39.09468
 -5.61122   8.75940  39.53352
 -5.56112   9.03749  39.98630
 -5.51102   8.95232  40.43482
 -5.46092   9.43347  40.90743
 -5.41082   9.54046  41.38541
 -5.36072  10.09333  41.89109
 -5.31062  10.08976  42.39659
 -5.26052   9.94776  42.89497
 -5.21042   9.23438  43.35762
 -5.16032   9.94403  43.85582
 -5.11022  11.12553  44.41321
 -5.06012  12.14571  45.02171
 -5.01002  11.75877  45.61083
 -4.95992  11.13927  46.16891
 -4.90982  12.14462  46.77735
 -4.85972  13.26062  47.44171
 -4.80962  13.69803  48.12799
 -4.75952  13.01088  48.77984
 -4.70942  12.50726  49.40645
 -4.65932  12.88446  50.05197
 -4.60922  13.99214  50.75298
 -4.55912  13.11808  51.41019
 -4.50902  12.32659  52.02776
 -4.45892  12.26256  52.64212
 -4.40882  12.47455  53.26709
 -4.35872  13.61500  53.94921
 -4.30862  15.39156  54.72033
 -4.25852  14.28228  55.43587
 -4.20842  15.57824  56.21635
 -4.15832  14.65741  56.95068
 -4.10822  17.85114  57.84503
 -4.05812  16.25947  58.65963
 -4.00802  14.41622  59.38189
 -3.95792  12.47655  60.00697
 -3.90782  10.86321  60.55122
 -3.85772  16.28897  61.36730
 -3.80762  13.13363  62.02529
 -3.75752  13.73356  62.71335
 -3.70741  13.93511  63.41150
 -3.65731  10.98324  63.96176
 -3.60721  10.65620  64.49564
 -3.55711  12.47106  65.12044
 -3.50701  10.52721  65.64786
 -3.45691   9.44921  66.12127
 -3.40681   8.77271  66.56078
 -3.35671   7.60184  66.94163
 -3.30661   5.69433  67.22692
 -3.25651   5.14833  67.48485
 -3.20641   8.41751  67.90657
 -3.15631  10.35007  68.42511
 -3.10621  11.64356  69.00846
 -3.05611   9.16098  69.46742
 -3.00601   8.78386  69.90750
 -2.95591  10.49401  70.43325
 -2.90581   9.54024  70.91122
 -2.85571   7.82883  71.30344
 -2.80561   7.35265  71.67181
 -2.75551   8.03123  72.07418
 -2.70541   7.58560  72.45422
 -2.65531   7.62905  72.83644
 -2.60521   7.32580  73.20346
 -2.55511   6.42666  73.52544
 -2.50501   5.40599  73.79628
 -2.45491   4.50034  74.02175
 -2.40481   4.09262  74.22679
 -2.35471   4.51126  74.45280
 -2.30461   3.81032  74.64370
 -2.25451   3.24839  74.80645
 -2.20441   3.37554  74.97556
 -2.15431   3.32926  75.14236
 -2.10421   3.87031  75.33626
 -2.05411   4.33918  75.55365
 -2.00401   4.92236  75.80027
 -1.95391   3.42564  75.97189
 -1.90381   2.36900  76.09058
 -1.85371   2.82204  76.23196
 -1.80361   3.89394  76.42705
 -1.75351   5.60164  76.70769
 -1.70341   5.98221  77.00740
 -1.65331   6.23809  77.31993
 -1.60321   5.92901  77.61698
 -1.55311   6.91972  77.96366
 -1.50301   6.23051  78.27581
 -1.45291   5.56624  78.55468
 -1.40281   5.62273  78.83637
 -1.35271   5.47735  79.11079
 -1.30261   4.67467  79.34499
 -1.25251   3.64853  79.52779
 -1.20240   3.43629  79.69994
 -1.15230   3.57367  79.87899
 -1.10220   3.87821  80.07329
 -1.05210   3.88141  80.26774
 -1.00200   4.34066  80.48521
 -0.95190   5.02633  80.73703
 -0.90180   5.53212  81.01419
 -0.85170   5.76860  81.30320
 -0.80160   6.14679  81.61116
 -0.75150   6.34076  81.92883
 -0.70140   5.52513  82.20564
 -0.65130   4.93164  82.45272
 -0.60120   5.20897  82.71369
 -0.55110   7.18282  83.07355
 -0.50100   8.08589  83.47865
 -0.45090   6.95937  83.82732
 -0.40080   6.45619  84.15077
 -0.35070   6.71349  84.48712
 -0.30060   7.07478  84.84157
 -0.25050   7.67718  85.22620
 -0.20040   7.35439  85.59465
 -0.15030   6.99181  85.94494
 -0.10020   6.64986  86.27810
 -0.05010   6.67269  86.61241
 -0.00000   7.74826  87.00060
  0.05010   8.08511  87.40566
  0.10020   9.06162  87.85965
  0.15030  11.15682  88.41861
  0.20040  10.99165  88.96929
  0.25050  11.42574  89.54173
  0.30060  10.05886  90.04568
  0.35070  10.06969  90.55017
  0.40080  10.39670  91.07105
  0.45090  10.34579  91.58937
  0.50100  11.06754  92.14386
  0.55110  12.40036  92.76512
  0.60120  11.73311  93.35295
  0.65130  12.32904  93.97064
  0.70140  13.55867  94.64993
  0.75150  14.75068  95.38894
  0.80160  19.69754  96.37579
  0.85170  16.87699  97.22133
  0.90180  20.01100  98.22389
  0.95190  17.23076  99.08715
  1.00200  21.11233 100.14489
  1.05210  18.15065 101.05424
  1.10220  18.63533 101.98787
  1.15230  18.26902 102.90315
  1.20240  22.23435 104.01710
  1.25251  20.00391 105.01930
  1.30261  18.05325 105.92377
  1.35271  20.06015 106.92879
  1.40281  19.62864 107.91219
  1.45291  14.72251 108.64979
  1.50301  12.58237 109.28017
  1.55311  10.36390 109.79940
  1.60321  10.16651 110.30874
  1.65331   9.86538 110.80300
  1.70341  10.41296 111.32469
  1.75351  12.08097 111.92995
  1.80361  11.92006 112.52715
  1.85371  10.56275 113.05634
  1.90381  13.53687 113.73454
  1.95391  14.61300 114.46666
  2.00401  11.59939 115.04779
  2.05411   9.95776 115.54668
  2.10421  10.00690 116.04802
  2.15431   9.51435 116.52469
  2.20441   9.03870 116.97754
  2.25451  10.60433 117.50881
  2.30461  11.11825 118.06584
  2.35471   9.92074 118.56287
  2.40481   8.14262 118.97082
  2.45491   7.22189 119.33264
  2.50501   6.28454 119.64749
  2.55511   6.52711 119.97450
  2.60521   7.06009 120.32822
  2.65531   7.03786 120.68081
  2.70541   5.87840 120.97532
  2.75551   5.04636 121.22815
  2.80561   5.26051 121.49170
  2.85571   5.05177 121.74479
  2.90581   4.87464 121.98901
  2.95591   6.91367 122.33539
  3.00601   7.82409 122.72738
  3.05611   7.69004 123.11265
  3.10621   6.25721 123.42614
  3.15631   6.60813 123.75721
  3.20641   8.15518 124.16578
  3.25651   8.51349 124.59231
  3.30661   7.54451 124.97029
  3.35671   6.08822 125.27531
  3.40681   6.09252 125.58055
  3.45691   7.46541 125.95457
  3.50701   8.16381 126.36358
  3.55711  10.02890 126.86603
  3.60721  11.73476 127.45394
  3.65731   9.83644 127.94675
  3.70741   8.26049 128.36060
  3.75752   8.01125 128.76197
  3.80762   6.88837 129.10707
  3.85772   6.29671 129.42254
  3.90782   6.55342 129.75087
  3.95792   6.30190 130.06660
  4.00802   4.82730 130.30844
  4.05812   4.81284 130.54957
  4.10822   4.72423 130.78625
  4.15832   5.09555 131.04154
  4.20842   5.57492 131.32085
  4.25852   6.35039 131.63900
  4.30862   7.29016 132.00424
  4.35872   7.83733 132.39689
  4.40882   8.02305 132.79885
  4.45892   8.27899 133.21363
  4.50902   8.31556 133.63024
  4.55912   7.25115 133.99352
  4.60922   6.80515 134.33446
  4.65932   7.59260 134.71485
  4.70942   7.90681 135.11099
  4.75952   7.57208 135.49035
  4.80962   7.30311 135.85624
  4.85972   6.75359 136.19459
  4.90982   6.01435 136.49591
  4.95992   5.80821 136.78690
  5.01002   5.92655 137.08383
  5.06012   6.14776 137.39183
  5.11022   5.72710 137.67876
  5.16032   5.83207 137.97095
  5.21042   5.92290 138.26768
  5.26052   5.99402 138.56799
  5.31062   6.35270 138.88626
  5.36072   6.23611 139.19869
  5.41082   6.17821 139.50822
  5.46092   6.12919 139.81529
  5.51102   6.28341 140.13009
  5.56112   6.29600 140.44552
  5.61122   6.30646 140.76148
  5.66132   6.21927 141.07306
  5.71142   6.11676 141.37951
  5.76152   6.06908 141.68358
  5.81162   6.07491 141.98793
  5.86172   6.22297 142.29970
  5.91182   6.39112 142.61990
  5.96192   6.61190 142.95116
  6.01202   6.72501 143.28808
  6.06212   7.04970 143.64127
  6.11222   7.13541 143.99876
  6.16232   7.53542 144.37628
  6.21242   8.09786 144.78199
  6.26253   8.80255 145.22300
  6.31263   9.41741 145.69481
  6.36273   9.61284 146.17642
  6.41283   9.80897 146.66785
  6.46293  10.23430 147.18059
  6.51303   9.66538 147.66483
  6.56313   9.15436 148.12346
  6.61323   9.60128 148.60449
  6.66333  10.10158 149.11058
  6.71343   9.21890 149.57245
  6.76353   8.17112 149.98182
  6.81363   7.68198 150.36669
  6.86373   7.68575 150.75175
  6.91383   7.02453 151.10368
  6.96393   6.72308 151.44051
  7.01403   6.27580 151.75493
  7.06413   6.67123 152.08916
  7.11423   7.59178 152.46951
  7.16433   7.43208 152.84185
  7.21443   7.94535 153.23992
  7.26453   8.58958 153.67026
  7.31463   8.52715 154.09747
  7.36473   8.41221 154.51892
  7.41483   8.55551 154.94756
  7.46493   8.69042 155.38295
  7.51503   9.90780 155.87933
  7.56513   9.45120 156.35284
  7.61523   9.18572 156.81304
  7.66533   9.51312 157.28965
  7.71543   9.49603 157.76541
  7.76553   9.23344 158.22800
  7.81563   9.40028 158.69896
  7.86573   9.70955 159.18541
  7.91583   9.76525 159.67465
  7.96593  10.61316 160.20637
  8.01603  10.43946 160.72939
  8.06613   9.50883 161.20579
  8.11623   9.10668 161.66203
  8.16633   9.30069 162.12800
  8.21643   9.48695 162.60330
  8.26653  10.15160 163.11189
  8.31663   9.55555 163.59063
  8.36673  10.46527 164.11494
  8.41683  10.91709 164.66189
  8.46693  10.29788 165.17781
  8.51703  10.20153 165.68891
  8.56713  10.37569 166.20874
  8.61723   9.89765 166.70461
  8.66733   9.74316 167.19275
  8.71743   9.73084 167.68026
  8.76754   9.36538 168.14947
  8.81764   9.08658 168.60471
  8.86774   9.76699 169.09404
  8.91784   9.52367 169.57117
  8.96794   9.15554 170.02987
  9.01804   9.11978 170.48677
      9.01803607     -16.03206413   501       8.24511109       1.00000000; Z= 42; 5s 4p_y 4p_z 4p_x 4d_xy 4d_yz 4d_z^2 4d_xz 4d_x^2-y^2 
-16.03206   0.00000   0.00000   0.00000   0.00000   0.00000   0.00000   0.00000   0.00000   0.00000
-15.98196   0.00000   0.00000   0.00000   0.00000   0.00000   0.00000   0.00000   0.00000   0.00000
-15.93186   0.00000   0.00000   0.00000   0.00000   0.00000   0.00000   0.00000   0.00000   0.00000
-15.88176   0.00000   0.00000   0.00000   0.00000   0.00000   0.00000   0.00000   0.00000   0.00000
-15.83166   0.00000   0.00000   0.00000   0.00000   0.00000   0.00000   0.00000   0.00000   0.00000
-15.78156   0.00000   0.00000   0.00000   0.00000   0.00000   0.00000   0.00000   0.00000   0.00000
-15.73146   0.00000   0.00000   0.00000   0.00000   0.00000   0.00000   0.00000   0.00000   0.00000
-15.68136   0.00000   0.00000   0.00000   0.00000   0.00000   0.00000   0.00000   0.00000   0.00000
-15.63126   0.00000   0.00000   0.00000   0.00000   0.00000   0.00000   0.00000   0.00000   0.00000
-15.58116   0.00000   0.00000   0.00000   0.00000   0.00000   0.00000   0.00000   0.00000   0.00000
-15.53106   0.00000   0.00000   0.00000   0.00000   0.00000   0.00000   0.00000   0.00000   0.00000
-15.48096   0.00000   0.00000   0.00000   0.00000   0.00000   0.00000   0.00000   0.00000   0.00000
-15.43086   0.00000   0.00000   0.00000   0.00000   0.00000   0.00000   0.00000   0.00000   0.00000
-15.38076   0.00000   0.00000   0.00000   0.00000   0.00000   0.00000   0.00000   0.00000   0.00000
-15.33066   0.00000   0.00000   0.00000   0.00000   0.00000   0.00000   0.00000   0.00000   0.00000
-15.28056   0.00000   0.00000   0.00000   0.00000   0.00000   0.00000   0.00000   0.00000   0.00000
-15.23046   0.00000   0.00000   0.00000   0.00000   0.00000   0.00000   0.00000   0.00000   0.00000
-15.18036   0.00000   0.00000   0.00000   0.00000   0.00000   0.00000   0.00000   0.00000   0.00000
-15.13026   0.00000   0.00000   0.00000   0.00000   0.00000   0.00000   0.00000   0.00000   0.00000
-15.08016   0.00000   0.00000   0.00000   0.00000   0.00000   0.00000   0.00000   0.00000   0.00000
-15.03006   0.00000   0.00000   0.00000   0.00000   0.00000   0.00000   0.00000   0.00000   0.00000
-14.97996   0.00000   0.00000   0.00000   0.00000   0.00000   0.00000   0.00000   0.00000   0.00000
-14.92986   0.00000   0.00000   0.00000   0.00000   0.00000   0.00000   0.00000   0.00000   0.00000
-14.87976   0.00000   0.00000   0.00000   0.00000   0.00000   0.00000   0.00000   0.00000   0.00000
-14.82966   0.00000   0.00000   0.00000   0.00000   0.00000   0.00000   0.00000   0.00000   0.00000
-14.77956   0.00000   0.00000   0.00000   0.00000   0.00000   0.00000   0.00000   0.00000   0.00000
-14.72946   0.00000   0.00000   0.00000   0.00000   0.00000   0.00000   0.00000   0.00000   0.00000
-14.67936   0.00000   0.00000   0.00000   0.00000   0.00000   0.00000   0.00000   0.00000   0.00000
-14.62926   0.00000   0.00000   0.00000   0.00000   0.00000   0.00000   0.00000   0.00000   0.00000
-14.57916   0.00000   0.00000   0.00000   0.00000   0.00000   0.00000   0.00000   0.00000   0.00000
-14.52906   0.00000   0.00000   0.00000   0.00000   0.00000   0.00000   0.00000   0.00000   0.00000
-14.47896   0.00000   0.00000   0.00000   0.00000   0.00000   0.00000   0.00000   0.00000   0.00000
-14.42886   0.00000   0.00000   0.00000   0.00000   0.00000   0.00000   0.00000   0.00000   0.00000
-14.37876   0.00000   0.00000   0.00000   0.00000   0.00000   0.00000   0.00000   0.00000   0.00000
-14.32866   0.00180   0.00000  -0.00000   0.00000   0.00001   0.00000   0.00011   0.00000   0.00000
-14.27856   0.01086   0.00000  -0.00000   0.00001   0.00007   0.00000   0.00068   0.00000   0.00002
-14.22846   0.01523   0.00000  -0.00000   0.00001   0.00010   0.00000   0.00099   0.00000   0.00004
-14.17836   0.01804   0.00000  -0.00000   0.00001   0.00012   0.00001   0.00125   0.00001   0.00005
-14.12826   0.01975   0.00000  -0.00001   0.00001   0.00014   0.00002   0.00144   0.00002   0.00006
-14.07816   0.02202   0.00000  -0.00001   0.00001   0.00016   0.00003   0.00167   0.00003   0.00007
-14.02806   0.02317   0.00001  -0.00002   0.00001   0.00018   0.00004   0.00185   0.00005   0.00009
-13.97796   0.02397   0.00001  -0.00004   0.00002   0.00020   0.00006   0.00201   0.00007   0.00010
-13.92786   0.02506   0.00001  -0.00005   0.00001   0.00023   0.00008   0.00218   0.00010   0.00012
-13.87776   0.02647   0.00001  -0.00007   0.00001   0.00025   0.00011   0.00237   0.00013   0.00014
-13.82766   0.02722   0.00001  -0.00009   0.00002   0.00028   0.00015   0.00255   0.00017   0.00017
-13.77756   0.02770   0.00001  -0.00012   0.00002   0.00031   0.00019   0.00271   0.00023   0.00019
-13.72745   0.02830   0.00001  -0.00015   0.00002   0.00034   0.00024   0.00289   0.00029   0.00023
-13.67735   0.02910   0.00001  -0.00017   0.00002   0.00037   0.00030   0.00308   0.00037   0.00026
-13.62725   0.03014   0.00002  -0.00021   0.00003   0.00041   0.00037   0.00329   0.00045   0.00030
-13.57715   0.03239   0.00002  -0.00028   0.00003   0.00047   0.00047   0.00355   0.00058   0.00035
-13.52705   0.03212   0.00003  -0.00030   0.00004   0.00054   0.00058   0.00385   0.00072   0.00041
-13.47695   0.03215   0.00004  -0.00031   0.00006   0.00065   0.00068   0.00430   0.00087   0.00049
-13.42685   0.03294   0.00004  -0.00032   0.00007   0.00076   0.00077   0.00480   0.00100   0.00059
-13.37675   0.03427   0.00005  -0.00033   0.00008   0.00078   0.00089   0.00519   0.00117   0.00074
-13.32665   0.03365   0.00005  -0.00032   0.00010   0.00075   0.00100   0.00516   0.00134   0.00079
-13.27655   0.03682   0.00005  -0.00033   0.00013   0.00073   0.00110   0.00523   0.00151   0.00091
-13.22645   0.03903   0.00005  -0.00037   0.00013   0.00071   0.00120   0.00447   0.00167   0.00080
-13.17635   0.03842   0.00004  -0.00041   0.00012   0.00067   0.00131   0.00396   0.00188   0.00075
-13.12625   0.03744   0.00003  -0.00044   0.00011   0.00064   0.00142   0.00355   0.00208   0.00072
-13.07615   0.03746   0.00002  -0.00047   0.00010   0.00061   0.00152   0.00321   0.00227   0.00071
-13.02605   0.03541   0.00001  -0.00051   0.00007   0.00055   0.00161   0.00250   0.00245   0.00062
-12.97595   0.03566   0.00003  -0.00053   0.00005   0.00052   0.00171   0.00257   0.00264   0.00060
-12.92585   0.03776   0.00007  -0.00054   0.00004   0.00054   0.00187   0.00336   0.00287   0.00066
-12.87575   0.04052   0.00011  -0.00056   0.00004   0.00065   0.00212   0.00469   0.00319   0.00083
-12.82565   0.04288   0.00012  -0.00057   0.00006   0.00077   0.00245   0.00565   0.00362   0.00102
-12.77555   0.04369   0.00011  -0.00062   0.00012   0.00085   0.00287   0.00580   0.00424   0.00128
-12.72545   0.04323   0.00009  -0.00068   0.00010   0.00087   0.00333   0.00573   0.00491   0.00137
-12.67535   0.04168   0.00007  -0.00072   0.00006   0.00091   0.00378   0.00561   0.00555   0.00139
-12.62525   0.04279   0.00004  -0.00082   0.00002   0.00097   0.00521   0.00562   0.00726   0.00150
-12.57515   0.04655   0.00001  -0.00100  -0.00002   0.00112   0.00733   0.00591   0.00996   0.00168
-12.52505   0.04437   0.00000  -0.00106  -0.00004   0.00113   0.00755   0.00589   0.01021   0.00174
-12.47495   0.04273  -0.00000  -0.00116  -0.00006   0.00117   0.00760   0.00592   0.01104   0.00183
-12.42485   0.03139   0.00002  -0.00103  -0.00004   0.00094   0.00581   0.00497   0.00888   0.00154
-12.37475   0.02723   0.00003  -0.00117  -0.00004   0.00094   0.00572   0.00451   0.00907   0.00140
-12.32465   0.02494   0.00000  -0.00131   0.00006   0.00121   0.00621   0.00478   0.01059   0.00154
-12.27455   0.02567  -0.00002  -0.00159  -0.00000   0.00131   0.00800   0.00487   0.01589   0.00175
-12.22445   0.02766  -0.00004  -0.00173  -0.00008   0.00157   0.01037   0.00535   0.02121   0.00203
-12.17435   0.03321  -0.00007  -0.00202  -0.00011   0.00188   0.01335   0.00651   0.02606   0.00235
-12.12425   0.03269  -0.00008  -0.00215  -0.00012   0.00183   0.01351   0.00655   0.02682   0.00228
-12.07415   0.02992  -0.00007  -0.00265  -0.00013   0.00182   0.01418   0.00645   0.03024   0.00234
-12.02405   0.02834  -0.00004  -0.00282  -0.00013   0.00197   0.01605   0.00705   0.03658   0.00269
-11.97395   0.02677  -0.00004  -0.00228  -0.00013   0.00251   0.01945   0.00772   0.04710   0.00306
-11.92385   0.02480  -0.00003  -0.00267  -0.00005   0.00274   0.02210   0.00808   0.05451   0.00360
-11.87375   0.02252  -0.00012  -0.00260  -0.00009   0.00260   0.02212   0.00735   0.04973   0.00307
-11.82365   0.02047  -0.00014  -0.00268  -0.00011   0.00258   0.02438   0.00706   0.05508   0.00306
-11.77355   0.01897  -0.00021  -0.00268  -0.00017   0.00254   0.02616   0.00675   0.04976   0.00298
-11.72345   0.01861  -0.00031  -0.00244  -0.00019   0.00288   0.02871   0.00695   0.04101   0.00318
-11.67335   0.01722  -0.00036  -0.00209  -0.00019   0.00302   0.03183   0.00684   0.02972   0.00331
-11.62325   0.01635  -0.00040  -0.00237  -0.00019   0.00323   0.03894   0.00689   0.03334   0.00350
-11.57315   0.01583  -0.00046  -0.00306  -0.00016   0.00366   0.05356   0.00739   0.03954   0.00394
-11.52305   0.01557  -0.00050  -0.00395  -0.00007   0.00442   0.07598   0.00864   0.04978   0.00482
-11.47295   0.01473  -0.00056  -0.00412  -0.00013   0.00464   0.08351   0.00886   0.06051   0.00500
-11.42285   0.01375  -0.00060  -0.00436  -0.00019   0.00474   0.09105   0.00900   0.07445   0.00528
-11.37275   0.01256  -0.00064  -0.00488  -0.00026   0.00470   0.10661   0.00883   0.09301   0.00541
-11.32265   0.01143  -0.00073  -0.00480  -0.00035   0.00484   0.12741   0.00906   0.10507   0.00581
-11.27255   0.01083  -0.00084  -0.00447  -0.00049   0.00512   0.15671   0.01058   0.12400   0.00750
-11.22244   0.01117  -0.00089  -0.00353  -0.00050   0.00592   0.13119   0.01230   0.09384   0.00772
-11.17234   0.00962  -0.00089  -0.00288  -0.00049   0.00566   0.10510   0.01107   0.07749   0.00746
-11.12224   0.00847  -0.00091  -0.00244  -0.00049   0.00555   0.08855   0.01066   0.07235   0.00760
-11.07214   0.00748  -0.00094  -0.00221  -0.00049   0.00538   0.07794   0.01024   0.07011   0.00775
-11.02204   0.00679  -0.00097  -0.00215  -0.00043   0.00547   0.06856   0.00964   0.07479   0.00774
-10.97194   0.00771  -0.00099  -0.00231   0.00014   0.00887   0.06168   0.01123   0.09317   0.00880
-10.92184   0.00594  -0.00102  -0.00137  -0.00027   0.00680   0.05235   0.00957   0.06741   0.00768
-10.87174   0.00453  -0.00095  -0.00086  -0.00042   0.00549   0.04813   0.00836   0.05342   0.00697
-10.82164   0.00373  -0.00095  -0.00061  -0.00038   0.00530   0.04441   0.00807   0.05091   0.00714
-10.77154   0.00331  -0.00109  -0.00038  -0.00056   0.00581   0.04206   0.00747   0.04784   0.00721
-10.72144   0.00297  -0.00113  -0.00024  -0.00068   0.00598   0.03651   0.00641   0.04116   0.00640
-10.67134   0.00285  -0.00113  -0.00022  -0.00065   0.00635   0.03317   0.00608   0.03558   0.00649
-10.62124   0.00293  -0.00114  -0.00029  -0.00066   0.00747   0.04037   0.00636   0.04040   0.00739
-10.57114   0.00308  -0.00128  -0.00078  -0.00067   0.00816   0.07288   0.00732   0.05463   0.00961
-10.52104   0.00310  -0.00143  -0.00094  -0.00074   0.00866   0.08171   0.00773   0.06055   0.01110
-10.47094   0.00323  -0.00152  -0.00095  -0.00075   0.00939   0.08168   0.00777   0.06742   0.01167
-10.42084   0.00341  -0.00154  -0.00089  -0.00076   0.00997   0.08095   0.00824   0.08196   0.01210
-10.37074   0.00349  -0.00167  -0.00074  -0.00100   0.01114   0.06942   0.00862   0.07409   0.01252
-10.32064   0.00360  -0.00178  -0.00075  -0.00111   0.01424   0.06686   0.00889   0.06855   0.01351
-10.27054   0.00318  -0.00157  -0.00086  -0.00089   0.01419   0.06844   0.00900   0.06892   0.01405
-10.22044   0.00300  -0.00147  -0.00101  -0.00073   0.01398   0.06819   0.00995   0.07201   0.01488
-10.17034   0.00232  -0.00131  -0.00090  -0.00064   0.01034   0.05429   0.00704   0.05808   0.01144
-10.12024   0.00171  -0.00104  -0.00081  -0.00052   0.00756   0.04361   0.00470   0.04708   0.00851
-10.07014   0.00137  -0.00092  -0.00082  -0.00044   0.00643   0.03744   0.00372   0.04022   0.00724
-10.02004   0.00118  -0.00087  -0.00084  -0.00037   0.00633   0.03477   0.00349   0.03673   0.00692
 -9.96994   0.00113  -0.00095  -0.00056  -0.00039   0.00722   0.03514   0.00370   0.03592   0.00741
 -9.91984   0.00112  -0.00116  -0.00038  -0.00053   0.00929   0.03161   0.00467   0.03199   0.00962
 -9.86974   0.00132  -0.00159  -0.00020  -0.00076   0.01361   0.02725   0.00779   0.02744   0.01541
 -9.81964   0.00095  -0.00123  -0.00011  -0.00078   0.01074   0.02229   0.00598   0.02199   0.01216
 -9.76954   0.00076  -0.00105  -0.00011  -0.00067   0.00839   0.01945   0.00486   0.01847   0.01080
 -9.71944   0.00075  -0.00102  -0.00011  -0.00070   0.00879   0.01627   0.00525   0.01493   0.01142
 -9.66934   0.00077  -0.00106  -0.00010  -0.00080   0.01003   0.01220   0.00620   0.01116   0.01314
 -9.61924   0.00089  -0.00106  -0.00012  -0.00078   0.01130   0.01034   0.00756   0.00966   0.01482
 -9.56914   0.00099  -0.00092  -0.00020  -0.00067   0.01131   0.01070   0.00756   0.01011   0.01495
 -9.51904   0.00107  -0.00090  -0.00022  -0.00068   0.01198   0.00897   0.00777   0.00865   0.01521
 -9.46894   0.00113  -0.00104  -0.00022  -0.00080   0.01381   0.00967   0.00831   0.01219   0.01840
 -9.41884   0.00104  -0.00063  -0.00025  -0.00055   0.01170   0.00678   0.00799   0.00580   0.01415
 -9.36874   0.00120  -0.00080  -0.00031  -0.00068   0.01417   0.01358   0.00923   0.01139   0.01661
 -9.31864   0.00138  -0.00093  -0.00035  -0.00084   0.01691   0.02061   0.01111   0.01878   0.02065
 -9.26854   0.00173  -0.00110  -0.00042  -0.00108   0.02011   0.02731   0.01335   0.02821   0.02552
 -9.21844   0.00202  -0.00101  -0.00063  -0.00103   0.01986   0.03492   0.01276   0.03647   0.02522
 -9.16834   0.00257  -0.00128  -0.00084  -0.00140   0.02408   0.04345   0.01321   0.04610   0.03081
 -9.11824   0.00282  -0.00151  -0.00087  -0.00161   0.02747   0.04409   0.01307   0.04561   0.03502
 -9.06814   0.00321  -0.00167  -0.00090  -0.00178   0.03097   0.04387   0.01344   0.04647   0.03805
 -9.01804   0.00321  -0.00166  -0.00094  -0.00175   0.03304   0.04370   0.01334   0.04714   0.03749
 -8.96794   0.00315  -0.00150  -0.00113  -0.00162   0.03356   0.04500   0.01329   0.04973   0.03745
 -8.91784   0.00311  -0.00150  -0.00140  -0.00163   0.03583   0.04901   0.01346   0.05689   0.03992
 -8.86774   0.00303  -0.00150  -0.00168  -0.00163   0.03699   0.05351   0.01369   0.06453   0.04132
 -8.81764   0.00288  -0.00144  -0.00191  -0.00162   0.03713   0.05582   0.01404   0.06541   0.04252