   23   23    1    1
  0.8580923E+01  0.6077656E-09  0.6077611E-09  0.6175024E-09  0.5000000E-15
   1.0000000000000000E-004
  CAR 
 Name                                    
     87    666    128

  0.3742002E-15  0.3742002E-15  0.3742002E-15  0.7513148E-03
    1       -6.118640   1.000000
    2       -3.830863   1.000000
    3       -3.054480   1.000000
    4       -2.529755   1.000000
    5       -2.258071   1.000000
    6       -2.238686   1.000000
    7       -2.197252   1.000000
    8       -1.900830   1.000000
    9       -1.879788   1.000000
   10       -1.710522   1.000000
   11       -1.604281   1.000000
   12       -0.258817   1.000000
   13        0.022402   1.000000
   14        0.269593   1.000000
   15        0.354456   1.000000
   16        1.969975   1.000000
   17        2.283820   1.000000
   18        2.450831   1.000000
   19        2.769578   1.000000
   20        2.890652   1.000000
   21        3.181291   1.000000
   22        3.354177   1.000000
   23        3.377678   1.000000
   24        3.862855   1.000000
   25        4.142456   1.000000
   26        4.162794   1.000000
   27        4.178137   1.000000
   28        4.233203   1.000000
   29        4.266927   1.000000
   30        4.337624   1.000000
   31        4.592322   1.000000
   32        4.619056   1.000000
   33        4.628156   1.000000
   34        4.806521   1.000000
   35        4.911412   1.000000
   36        5.925959   1.000000
   37        5.980331   1.000000
   38        6.535754   1.000000
   39        6.654385   1.000000
   40        6.919327   1.000000
   41        7.049975   1.000000
   42        7.261193   1.000000
   43        7.564798   1.000000
   44        7.944342   1.000000
   45        8.156681   1.000000
   46        8.270729   0.000000
   47        9.038971   0.000000
   48        9.263769   0.000000
   49        9.331261   0.000000
   50        9.415886   0.000000
   51        9.477765   0.000000
   52        9.673850   0.000000
   53        9.755085   0.000000
   54        9.761169   0.000000
   55        9.821628   0.000000
   56       10.070318   0.000000
   57       10.173959   0.000000
   58       10.282632   0.000000
   59       10.998077   0.000000
   60       11.276612   0.000000
   61       11.319736   0.000000
   62       11.605217   0.000000
   63       11.828855   0.000000
   64       11.855420   0.000000
   65       11.955261   0.000000
   66       12.566362   0.000000
   67       12.955772   0.000000
   68       12.995429   0.000000
   69       13.010951   0.000000
   70       13.120434   0.000000
   71       13.202362   0.000000
   72       13.222548   0.000000
   73       13.434419   0.000000
   74       13.492653   0.000000
   75       13.634825   0.000000
   76       13.705946   0.000000
   77       14.262061   0.000000
   78       14.514454   0.000000
   79       15.238905   0.000000
   80       15.646757   0.000000
   81       15.776243   0.000000
   82       15.946244   0.000000
   83       16.015616   0.000000
   84       16.045532   0.000000
   85       16.167982   0.000000
   86       16.570158   0.000000
   87       17.049669   0.000000
   88       17.445648   0.000000
   89       17.733995   0.000000
   90       18.546363   0.000000
   91       18.783178   0.000000
   92       18.915617   0.000000
   93       19.215470   0.000000
   94       19.944121   0.000000
   95       20.067434   0.000000
   96       20.573009   0.000000
   97       21.040738   0.000000
   98       21.138031   0.000000
   99       21.482059   0.000000
  100       21.533539   0.000000
  101       21.650348   0.000000
  102       21.928563   0.000000
  103       22.301985   0.000000
  104       22.541296   0.000000
  105       22.632449   0.000000
  106       23.193299   0.000000
  107       23.472952   0.000000
  108       23.881477   0.000000
  109       23.976273   0.000000
  110       24.515214   0.000000
  111       24.743824   0.000000
  112       24.810156   0.000000
  113       25.223021   0.000000
  114       25.264873   0.000000
  115       25.422152   0.000000
  116       25.432527   0.000000
  117       25.460639   0.000000
  118       25.510308   0.000000
  119       25.795987   0.000000
  120       25.917930   0.000000
  121       26.121754   0.000000
  122       26.333280   0.000000
  123       26.341441   0.000000
  124       26.536524   0.000000
  125       26.870656   0.000000
  126       27.480513   0.000000
  127       27.683095   0.000000
  128       27.771299   0.000000

  0.9090909E-01  0.3761816E-15  0.3742001E-15  0.1502630E-02
    1       -6.079146   1.000000
    2       -3.818296   1.000000
    3       -3.054856   1.000000
    4       -2.658301   1.000000
    5       -2.523661   1.000000
    6       -2.355530   1.000000
    7       -2.249600   1.000000
    8       -2.160300   1.000000
    9       -1.600995   1.000000
   10       -1.476841   1.000000
   11       -1.210490   1.000000
   12       -0.203283   1.000000
   13        0.060426   1.000000
   14        0.268104   1.000000
   15        0.403514   1.000000
   16        1.988851   1.000000
   17        2.288281   1.000000
   18        2.457449   1.000000
   19        2.786502   1.000000
   20        2.895974   1.000000
   21        3.062103   1.000000
   22        3.271597   1.000000
   23        3.388573   1.000000
   24        3.619179   1.000000
   25        4.006235   1.000000
   26        4.172055   1.000000
   27        4.202983   1.000000
   28        4.246622   1.000000
   29        4.252257   1.000000
   30        4.376526   1.000000
   31        4.504889   1.000000
   32        4.576853   1.000000
   33        4.682046   1.000000
   34        4.889252   1.000000
   35        5.148467   1.000000
   36        5.857443   1.000000
   37        6.028697   1.000000
   38        6.089974   1.000000
   39        6.196899   1.000000
   40        7.216833   1.000000
   41        7.371968   1.000000
   42        7.498523   1.000000
   43        7.576909   1.000000
   44        7.846022   1.000000
   45        8.192941   1.008854
   46        8.269278   0.000000
   47        9.046443   0.000000
   48        9.245900   0.000000
   49        9.306152   0.000000
   50        9.394477   0.000000
   51        9.474764   0.000000
   52        9.666752   0.000000
   53        9.725391   0.000000
   54        9.742825   0.000000
   55        9.786324   0.000000
   56        9.967144   0.000000
   57       10.105436   0.000000
   58       10.245539   0.000000
   59       11.074022   0.000000
   60       11.092580   0.000000
   61       11.117608   0.000000
   62       11.624670   0.000000
   63       11.815569   0.000000
   64       11.837010   0.000000
   65       12.011944   0.000000
   66       12.645539   0.000000
   67       12.814082   0.000000
   68       12.977232   0.000000
   69       12.985635   0.000000
   70       13.036393   0.000000
   71       13.404421   0.000000
   72       13.491526   0.000000
   73       13.566087   0.000000
   74       13.683301   0.000000
   75       13.849909   0.000000
   76       14.100457   0.000000
   77       14.383111   0.000000
   78       14.500516   0.000000
   79       15.212786   0.000000
   80       15.672683   0.000000
   81       15.796139   0.000000
   82       15.961780   0.000000
   83       16.001277   0.000000
   84       16.095144   0.000000
   85       16.273822   0.000000
   86       16.758809   0.000000
   87       17.059840   0.000000
   88       17.475423   0.000000
   89       17.657094   0.000000
   90       18.323951   0.000000
   91       18.557079   0.000000
   92       18.693521   0.000000
   93       18.860826   0.000000
   94       19.632196   0.000000
   95       20.393338   0.000000
   96       20.847253   0.000000
   97       21.042916   0.000000
   98       21.198091   0.000000
   99       21.548735   0.000000
  100       21.707561   0.000000
  101       21.801422   0.000000
  102       21.990104   0.000000
  103       22.114880   0.000000
  104       22.286523   0.000000
  105       22.350288   0.000000
  106       23.030691   0.000000
  107       23.241563   0.000000
  108       23.650724   0.000000
  109       23.990400   0.000000
  110       24.583713   0.000000
  111       24.683580   0.000000
  112       24.899652   0.000000
  113       25.145418   0.000000
  114       25.223574   0.000000
  115       25.378822   0.000000
  116       25.509782   0.000000
  117       25.566636   0.000000
  118       25.654036   0.000000
  119       25.852513   0.000000
  120       25.862610   0.000000
  121       26.094801   0.000000
  122       26.138617   0.000000
  123       26.296777   0.000000
  124       26.544963   0.000000
  125       26.841676   0.000000
  126       27.250223   0.000000
  127       27.300081   0.000000
  128       27.471135   0.000000

  0.1818182E+00  0.3839497E-15  0.3742001E-15  0.1502630E-02
    1       -5.961497   1.000000
    2       -3.780213   1.000000
    3       -3.222849   1.000000
    4       -3.064882   1.000000
    5       -2.540799   1.000000
    6       -2.522114   1.000000
    7       -2.405428   1.000000
    8       -2.352178   1.000000
    9       -1.201021   1.000000
   10       -1.132360   1.000000
   11       -0.578854   1.000000
   12       -0.036580   1.000000
   13        0.056029   1.000000
   14        0.248724   1.000000
   15        0.658803   1.000000
   16        2.039298   1.000000
   17        2.298792   1.000000
   18        2.442099   1.000000
   19        2.696826   1.000000
   20        2.842090   1.000000
   21        2.898060   1.000000
   22        2.959125   1.000000
   23        3.279556   1.000000
   24        3.490145   1.000000
   25        3.759601   1.000000
   26        4.168835   1.000000
   27        4.187157   1.000000
   28        4.245475   1.000000
   29        4.264557   1.000000
   30        4.321225   1.000000
   31        4.521359   1.000000
   32        4.534988   1.000000
   33        4.675617   1.000000
   34        5.027983   1.000000
   35        5.360877   1.000000
   36        5.615980   1.000000
   37        5.654010   1.000000
   38        5.705151   1.000000
   39        6.279996   1.000000
   40        7.061038   1.000000
   41        7.566583   1.000000
   42        7.647076   1.000000
   43        7.791095   1.000000
   44        8.087552   1.035610
   45        8.256492   0.339838
   46        8.414465   0.000000
   47        9.066348   0.000000
   48        9.149539   0.000000
   49        9.201952   0.000000
   50        9.288940   0.000000
   51        9.467202   0.000000
   52        9.641831   0.000000
   53        9.646143   0.000000
   54        9.696536   0.000000
   55        9.731929   0.000000
   56        9.794864   0.000000
   57       10.002368   0.000000
   58       10.214116   0.000000
   59       10.611709   0.000000
   60       10.657546   0.000000
   61       11.291602   0.000000
   62       11.389373   0.000000
   63       11.833675   0.000000
   64       12.052512   0.000000
   65       12.170953   0.000000
   66       12.342369   0.000000
   67       12.818698   0.000000
   68       12.965484   0.000000
   69       13.158743   0.000000
   70       13.223763   0.000000
   71       13.802202   0.000000
   72       13.916826   0.000000
   73       14.101699   0.000000
   74       14.168584   0.000000
   75       14.327724   0.000000
   76       14.475428   0.000000
   77       14.729489   0.000000
   78       14.789214   0.000000
   79       15.132926   0.000000
   80       15.599176   0.000000
   81       15.881958   0.000000
   82       15.960694   0.000000
   83       16.170961   0.000000
   84       16.267906   0.000000
   85       16.584309   0.000000
   86       16.946797   0.000000
   87       17.154276   0.000000
   88       17.437058   0.000000
   89       17.539879   0.000000
   90       17.641590   0.000000
   91       17.781939   0.000000
   92       18.385883   0.000000
   93       18.915938   0.000000
   94       19.754815   0.000000
   95       20.237278   0.000000
   96       20.650726   0.000000
   97       20.692475   0.000000
   98       21.068503   0.000000
   99       21.300527   0.000000
  100       21.453933   0.000000
  101       21.631695   0.000000
  102       21.843645   0.000000
  103       22.260473   0.000000
  104       22.394610   0.000000
  105       22.704989   0.000000
  106       22.716771   0.000000
  107       22.958631   0.000000
  108       23.127035   0.000000
  109       24.160055   0.000000
  110       24.545308   0.000000
  111       24.725311   0.000000
  112       24.911257   0.000000
  113       25.070868   0.000000
  114       25.113773   0.000000
  115       25.131477   0.000000
  116       25.328076   0.000000
  117       25.579041   0.000000
  118       25.653150   0.000000
  119       25.674090   0.000000
  120       25.974500   0.000000
  121       26.019994   0.000000
  122       26.231112   0.000000
  123       26.274898   0.000000
  124       26.417873   0.000000
  125       26.425555   0.000000
  126       26.737496   0.000000
  127       26.812343   0.000000
  128       27.161665   0.000000

  0.2727273E+00  0.3894639E-15  0.3741998E-15  0.1502630E-02
    1       -5.768340   1.000000
    2       -3.769590   1.000000
    3       -3.715916   1.000000
    4       -3.110241   1.000000
    5       -2.699467   1.000000
    6       -2.584805   1.000000
    7       -2.574568   1.000000
    8       -2.385013   1.000000
    9       -0.769865   1.000000
   10       -0.722813   1.000000
   11       -0.010082   1.000000
   12        0.052049   1.000000
   13        0.211956   1.000000
   14        0.259291   1.000000
   15        1.101531   1.000000
   16        2.104819   1.000000
   17        2.194337   1.000000
   18        2.310242   1.000000
   19        2.317976   1.000000
   20        2.396190   1.000000
   21        2.911361   1.000000
   22        2.948663   1.000000
   23        3.183297   1.000000
   24        3.336191   1.000000
   25        3.651087   1.000000
   26        4.104964   1.000000
   27        4.146276   1.000000
   28        4.212527   1.000000
   29        4.282244   1.000000
   30        4.334033   1.000000
   31        4.356723   1.000000
   32        4.598760   1.000000
   33        4.739104   1.000000
   34        4.785816   1.000000
   35        5.161095   1.000000
   36        5.252608   1.000000
   37        5.391128   1.000000
   38        6.100796   1.000000
   39        6.508167   1.000000
   40        6.914205   1.000000
   41        7.207967   1.000000
   42        7.757669   1.000000
   43        7.913122   1.000000
   44        8.218909   0.976528
   45        8.706090   0.000000
   46        8.818952   0.000000
   47        8.883005   0.000000
   48        8.940904   0.000000
   49        9.094892   0.000000
   50        9.125385   0.000000
   51        9.450002   0.000000
   52        9.507346   0.000000
   53        9.618600   0.000000
   54        9.653538   0.000000
   55        9.672781   0.000000
   56        9.844809   0.000000
   57       10.023998   0.000000
   58       10.111209   0.000000
   59       10.228469   0.000000
   60       10.233636   0.000000
   61       11.048320   0.000000
   62       11.442864   0.000000
   63       11.678341   0.000000
   64       11.828255   0.000000
   65       12.460730   0.000000
   66       12.632604   0.000000
   67       12.796357   0.000000
   68       12.989066   0.000000
   69       13.326063   0.000000
   70       13.789615   0.000000
   71       14.186205   0.000000
   72       14.318324   0.000000
   73       14.467289   0.000000
   74       14.733949   0.000000
   75       14.803732   0.000000
   76       15.017983   0.000000
   77       15.064309   0.000000
   78       15.310271   0.000000
   79       15.478921   0.000000
   80       15.527018   0.000000
   81       15.743704   0.000000
   82       16.297587   0.000000
   83       16.392310   0.000000
   84       16.596884   0.000000
   85       16.640074   0.000000
   86       16.686286   0.000000
   87       16.816909   0.000000
   88       17.086168   0.000000
   89       17.268605   0.000000
   90       17.607843   0.000000
   91       17.835438   0.000000
   92       18.366163   0.000000
   93       19.032252   0.000000
   94       19.559128   0.000000
   95       19.918593   0.000000
   96       20.250491   0.000000
   97       20.358590   0.000000
   98       20.411033   0.000000
   99       20.622382   0.000000
  100       20.917810   0.000000
  101       21.077316   0.000000
  102       21.154681   0.000000
  103       21.738296   0.000000
  104       22.360677   0.000000
  105       22.696176   0.000000
  106       23.177157   0.000000
  107       23.435107   0.000000
  108       23.851286   0.000000
  109       24.176342   0.000000
  110       24.203075   0.000000
  111       24.521187   0.000000
  112       24.682096   0.000000
  113       24.895668   0.000000
  114       25.033220   0.000000
  115       25.042217   0.000000
  116       25.078925   0.000000
  117       25.229597   0.000000
  118       25.495026   0.000000
  119       25.575466   0.000000
  120       25.848744   0.000000
  121       25.944783   0.000000
  122       26.023865   0.000000
  123       26.194537   0.000000
  124       26.320693   0.000000
  125       26.611262   0.000000
  126       26.714653   0.000000
  127       26.776914   0.000000
  128       27.049939   0.000000

  0.3636364E+00  0.3539381E-15  0.3741999E-15  0.1502630E-02
    1       -5.505256   1.000000
    2       -4.273145   1.000000
    3       -3.626268   1.000000
    4       -3.209577   1.000000
    5       -2.809764   1.000000
    6       -2.703310   1.000000
    7       -2.627283   1.000000
    8       -2.362969   1.000000
    9       -0.329432   1.000000
   10       -0.295988   1.000000
   11       -0.081439   1.000000
   12        0.174908   1.000000
   13        0.517985   1.000000
   14        0.803144   1.000000
   15        1.631600   1.000000
   16        1.736656   1.000000
   17        1.806687   1.000000
   18        1.980578   1.000000
   19        2.168275   1.000000
   20        2.328755   1.000000
   21        2.714832   1.000000
   22        3.015835   1.000000
   23        3.114732   1.000000
   24        3.236321   1.000000
   25        3.695465   1.000000
   26        3.922426   1.000000
   27        4.003461   1.000000
   28        4.078737   1.000000
   29        4.138059   1.000000
   30        4.288042   1.000000
   31        4.426812   1.000000
   32        4.518581   1.000000
   33        4.651701   1.000000
   34        4.881284   1.000000
   35        4.946575   1.000000
   36        5.211003   1.000000
   37        5.267077   1.000000
   38        6.369996   1.000000
   39        6.555346   1.000000
   40        6.876849   1.000000
   41        7.122371   1.000000
   42        7.867202   1.000000
   43        7.885143   1.000000
   44        8.226841   0.919732
   45        8.516833  -0.012706
   46        8.554802  -0.000284
   47        9.014769   0.000000
   48        9.123318   0.000000
   49        9.148958   0.000000
   50        9.280585   0.000000
   51        9.366468   0.000000
   52        9.472958   0.000000
   53        9.581116   0.000000
   54        9.586177   0.000000
   55        9.677993   0.000000
   56        9.725713   0.000000
   57        9.864141   0.000000
   58        9.995787   0.000000
   59       10.165948   0.000000
   60       10.315757   0.000000
   61       10.815143   0.000000
   62       11.312493   0.000000
   63       11.327650   0.000000
   64       11.815991   0.000000
   65       12.426012   0.000000
   66       12.934334   0.000000
   67       13.036719   0.000000
   68       13.266618   0.000000
   69       13.546578   0.000000
   70       14.250580   0.000000
   71       14.537595   0.000000
   72       14.652851   0.000000
   73       14.660240   0.000000
   74       14.678883   0.000000
   75       15.111527   0.000000
   76       15.324617   0.000000
   77       15.600335   0.000000
   78       15.805617   0.000000
   79       15.833270   0.000000
   80       15.953538   0.000000
   81       16.127047   0.000000
   82       16.152039   0.000000
   83       16.254035   0.000000
   84       16.403997   0.000000
   85       16.630914   0.000000
   86       16.722264   0.000000
   87       16.793964   0.000000
   88       17.174273   0.000000
   89       17.398449   0.000000
   90       17.860546   0.000000
   91       18.186368   0.000000
   92       18.692439   0.000000
   93       18.717834   0.000000
   94       19.120464   0.000000
   95       19.142635   0.000000
   96       19.432606   0.000000
   97       19.533637   0.000000
   98       19.821393   0.000000
   99       20.062641   0.000000
  100       20.679477   0.000000
  101       20.901016   0.000000
  102       20.965790   0.000000
  103       21.245507   0.000000
  104       22.248101   0.000000
  105       22.485542   0.000000
  106       22.774883   0.000000
  107       23.880397   0.000000
  108       23.997535   0.000000
  109       24.027443   0.000000
  110       24.108710   0.000000
  111       24.347542   0.000000
  112       24.428739   0.000000
  113       24.845479   0.000000
  114       24.967965   0.000000
  115       25.078193   0.000000
  116       25.084110   0.000000
  117       25.224678   0.000000
  118       25.510203   0.000000
  119       25.651027   0.000000
  120       25.827558   0.000000
  121       26.005118   0.000000
  122       26.032495   0.000000
  123       26.375071   0.000000
  124       26.484124   0.000000
  125       26.610949   0.000000
  126       26.720991   0.000000
  127       26.773780   0.000000
  128       27.138212   0.000000

  0.4545455E+00  0.3879158E-15  0.3741997E-15  0.1502630E-02
    1       -5.194416   1.000000
    2       -4.705309   1.000000
    3       -3.522962   1.000000
    4       -3.331349   1.000000
    5       -2.865797   1.000000
    6       -2.762392   1.000000
    7       -2.644869   1.000000
    8       -2.343445   1.000000
    9       -0.125455   1.000000
   10        0.029275   1.000000
   11        0.047042   1.000000
   12        0.151922   1.000000
   13        0.918590   1.000000
   14        1.301755   1.000000
   15        1.363528   1.000000
   16        1.474753   1.000000
   17        1.593636   1.000000
   18        2.050439   1.000000
   19        2.162389   1.000000
   20        2.229081   1.000000
   21        2.475134   1.000000
   22        3.040999   1.000000
   23        3.093863   1.000000
   24        3.277043   1.000000
   25        3.321222   1.000000
   26        3.813822   1.000000
   27        3.942825   1.000000
   28        4.070056   1.000000
   29        4.114117   1.000000
   30        4.294012   1.000000
   31        4.482196   1.000000
   32        4.493911   1.000000
   33        4.644339   1.000000
   34        4.678770   1.000000
   35        5.029722   1.000000
   36        5.202603   1.000000
   37        5.305821   1.000000
   38        6.211363   1.000000
   39        6.669621   1.000000
   40        6.845705   1.000000
   41        7.415633   1.000000
   42        7.842610   1.000000
   43        7.980823   1.000000
   44        8.185106   1.012157
   45        8.213938   0.583326
   46        8.230643   0.053080
   47        8.963426   0.000000
   48        9.130262   0.000000
   49        9.331470   0.000000
   50        9.381317   0.000000
   51        9.411214   0.000000
   52        9.495226   0.000000
   53        9.515403   0.000000
   54        9.580530   0.000000
   55        9.660986   0.000000
   56        9.715154   0.000000
   57        9.728447   0.000000
   58       10.057861   0.000000
   59       10.203817   0.000000
   60       10.432588   0.000000
   61       10.772263   0.000000
   62       11.052330   0.000000
   63       11.155571   0.000000
   64       11.797554   0.000000
   65       12.264384   0.000000
   66       13.079792   0.000000
   67       13.398233   0.000000
   68       13.627986   0.000000
   69       13.761653   0.000000
   70       14.067145   0.000000
   71       14.571863   0.000000
   72       14.670224   0.000000
   73       14.907255   0.000000
   74       15.097658   0.000000
   75       15.240984   0.000000
   76       15.407052   0.000000
   77       15.589829   0.000000
   78       15.622143   0.000000
   79       15.810596   0.000000
   80       15.894686   0.000000
   81       16.056195   0.000000
   82       16.619334   0.000000
   83       16.631916   0.000000
   84       16.797392   0.000000
   85       17.035044   0.000000
   86       17.137845   0.000000
   87       17.245651   0.000000
   88       17.391945   0.000000
   89       17.768884   0.000000
   90       17.888752   0.000000
   91       18.163271   0.000000
   92       18.356990   0.000000
   93       18.360505   0.000000
   94       18.467412   0.000000
   95       18.700011   0.000000
   96       18.869620   0.000000
   97       19.136320   0.000000
   98       19.479095   0.000000
   99       19.606846   0.000000
  100       20.229115   0.000000
  101       20.320035   0.000000
  102       21.244853   0.000000
  103       21.968503   0.000000
  104       22.038732   0.000000
  105       22.248004   0.000000
  106       22.367176   0.000000
  107       23.076067   0.000000
  108       23.704923   0.000000
  109       23.985718   0.000000
  110       24.008892   0.000000
  111       24.358269   0.000000
  112       24.467220   0.000000
  113       24.907204   0.000000
  114       25.090115   0.000000
  115       25.161541   0.000000
  116       25.341079   0.000000
  117       25.590629   0.000000
  118       25.640277   0.000000
  119       25.756879   0.000000
  120       25.807252   0.000000
  121       26.165929   0.000000
  122       26.245103   0.000000
  123       26.382969   0.000000
  124       26.449318   0.000000
  125       26.590736   0.000000
  126       26.648323   0.000000
  127       27.087566   0.000000
  128       27.220938   0.000000

  0.3741711E-15  0.9090909E-01  0.3742002E-15  0.1502630E-02
    1       -6.079145   1.000000
    2       -3.818295   1.000000
    3       -3.054855   1.000000
    4       -2.658361   1.000000
    5       -2.523645   1.000000
    6       -2.355452   1.000000
    7       -2.249629   1.000000
    8       -2.160274   1.000000
    9       -1.600999   1.000000
   10       -1.476975   1.000000
   11       -1.210391   1.000000
   12       -0.203283   1.000000
   13        0.060484   1.000000
   14        0.268096   1.000000
   15        0.403486   1.000000
   16        1.988848   1.000000
   17        2.288281   1.000000
   18        2.457443   1.000000
   19        2.786494   1.000000
   20        2.895968   1.000000
   21        3.062094   1.000000
   22        3.271622   1.000000
   23        3.388574   1.000000
   24        3.619140   1.000000
   25        4.006178   1.000000
   26        4.172063   1.000000
   27        4.203037   1.000000
   28        4.246563   1.000000
   29        4.252296   1.000000
   30        4.376616   1.000000
   31        4.504973   1.000000
   32        4.576838   1.000000
   33        4.681946   1.000000
   34        4.889242   1.000000
   35        5.148462   1.000000
   36        5.857467   1.000000
   37        6.028705   1.000000
   38        6.090052   1.000000
   39        6.196761   1.000000
   40        7.216832   1.000000
   41        7.371988   1.000000
   42        7.498549   1.000000
   43        7.576900   1.000000
   44        7.846034   1.000000
   45        8.192914   1.008841
   46        8.269303   0.000000
   47        9.046443   0.000000
   48        9.245902   0.000000
   49        9.306164   0.000000
   50        9.394484   0.000000
   51        9.474764   0.000000
   52        9.666742   0.000000
   53        9.725383   0.000000
   54        9.742814   0.000000
   55        9.786319   0.000000
   56        9.967140   0.000000
   57       10.105493   0.000000
   58       10.245478   0.000000
   59       11.073967   0.000000
   60       11.092637   0.000000
   61       11.117553   0.000000
   62       11.624689   0.000000
   63       11.815485   0.000000
   64       11.837014   0.000000
   65       12.012086   0.000000
   66       12.645465   0.000000
   67       12.814264   0.000000
   68       12.977262   0.000000
   69       12.985482   0.000000
   70       13.036397   0.000000
   71       13.404562   0.000000
   72       13.491515   0.000000
   73       13.566071   0.000000
   74       13.682994   0.000000
   75       13.850039   0.000000
   76       14.100489   0.000000
   77       14.383135   0.000000
   78       14.500515   0.000000
   79       15.212794   0.000000
   80       15.672670   0.000000
   81       15.796171   0.000000
   82       15.961747   0.000000
   83       16.001279   0.000000
   84       16.095258   0.000000
   85       16.273678   0.000000
   86       16.758842   0.000000
   87       17.059824   0.000000
   88       17.475412   0.000000
   89       17.657082   0.000000
   90       18.324033   0.000000
   91       18.557011   0.000000
   92       18.694076   0.000000
   93       18.860235   0.000000
   94       19.632121   0.000000
   95       20.393385   0.000000
   96       20.847233   0.000000
   97       21.042925   0.000000
   98       21.198256   0.000000
   99       21.548649   0.000000
  100       21.707850   0.000000
  101       21.801336   0.000000
  102       21.990159   0.000000
  103       22.114766   0.000000
  104       22.286427   0.000000
  105       22.350239   0.000000
  106       23.030640   0.000000
  107       23.241817   0.000000
  108       23.650705   0.000000
  109       23.990243   0.000000
  110       24.583858   0.000000
  111       24.683254   0.000000
  112       24.899555   0.000000
  113       25.145511   0.000000
  114       25.224063   0.000000
  115       25.378823   0.000000
  116       25.509765   0.000000
  117       25.566634   0.000000
  118       25.653939   0.000000
  119       25.852489   0.000000
  120       25.862627   0.000000
  121       26.094800   0.000000
  122       26.138458   0.000000