   52   52   85    1
  0.2272233E+02  0.8645320E-09  0.6085000E-09  0.2593596E-08  0.5000000E-15
   1.0000000000000000E-004
  CAR 
 Name                                    
    192    149    128

  0.3742002E-15  0.3742002E-15  0.3742002E-15  0.3367003E-02
    1      -13.860651   1.000000
    2      -12.591466   1.000000
    3      -12.360487   1.000000
    4      -11.819856   1.000000
    5      -11.578752   1.000000
    6      -11.111503   1.000000
    7      -11.031999   1.000000
    8      -11.009641   1.000000
    9      -11.004164   1.000000
   10      -10.578587   1.000000
   11      -10.578234   1.000000
   12      -10.411280   1.000000
   13      -10.183638   1.000000
   14      -10.178471   1.000000
   15       -9.682048   1.000000
   16       -9.679402   1.000000
   17       -9.190371   1.000000
   18       -9.082978   1.000000
   19       -9.072370   1.000000
   20       -8.462451   1.000000
   21       -8.457621   1.000000
   22       -8.398867   1.000000
   23       -8.382909   1.000000
   24       -8.034871   1.000000
   25       -7.911149   1.000000
   26       -7.909127   1.000000
   27       -7.518724   1.000000
   28       -7.444131   1.000000
   29       -7.094301   1.000000
   30       -6.502757   1.000000
   31       -6.489990   1.000000
   32       -6.473450   1.000000
   33       -6.175809   1.000000
   34       -6.139624   1.000000
   35       -5.912361   1.000000
   36       -5.876048   1.000000
   37       -5.494074   1.000000
   38       -5.425442   1.000000
   39       -5.398308   1.000000
   40       -5.364226   1.000000
   41       -5.256592   1.000000
   42       -5.236290   1.000000
   43       -5.030431   1.000000
   44       -4.926922   1.000000
   45       -4.853211   1.000000
   46       -4.757324   1.000000
   47       -4.711828   1.000000
   48       -4.697392   1.000000
   49       -4.580458   1.000000
   50       -4.544228   1.000000
   51       -4.512710   1.000000
   52       -4.495761   1.000000
   53       -4.401928   1.000000
   54       -4.251793   1.000000
   55       -4.236026   1.000000
   56       -4.102992   1.000000
   57       -4.084846   1.000000
   58       -3.999185   1.000000
   59       -3.981514   1.000000
   60       -3.922317   1.000000
   61       -3.836375   1.000000
   62       -3.748007   1.000000
   63       -3.699771   1.000000
   64       -3.474559   1.000000
   65       -3.427911   1.000000
   66       -3.409939   1.000000
   67       -3.370472   1.000000
   68       -3.302246   1.000000
   69       -3.241725   1.000000
   70       -3.239823   1.000000
   71       -3.169076   1.000000
   72       -3.110232   1.000000
   73       -3.097665   1.000000
   74       -2.985033   1.000000
   75       -2.659044   1.000000
   76       -2.317207   1.000000
   77       -2.182010   1.000000
   78       -2.161583   1.000000
   79       -2.092910   1.000000
   80       -1.976355   1.000000
   81       -1.868144   1.000000
   82       -1.685033   1.000000
   83       -1.563033   1.000000
   84       -1.550899   1.000000
   85       -1.397480   1.000000
   86       -1.043985   1.000000
   87       -0.933228   1.000000
   88       -0.890951   1.000000
   89       -0.824661   1.000000
   90       -0.308504   1.000000
   91       -0.122134   1.000119
   92        0.000338   1.017199
   93        0.064295   1.032222
   94        0.104857   0.954985
   95        0.202538   0.265249
   96        0.208351   0.223864
   97        0.213116   0.192019
   98        0.524504  -0.000004
   99        0.543060  -0.000001
  100        0.658513  -0.000000
  101        0.682299  -0.000000
  102        0.687246  -0.000000
  103        0.690085  -0.000000
  104        0.787451  -0.000000
  105        0.980794  -0.000000
  106        1.022310  -0.000000
  107        1.027975  -0.000000
  108        1.245230  -0.000000
  109        1.347712  -0.000000
  110        1.413627  -0.000000
  111        1.511147  -0.000000
  112        1.530005  -0.000000
  113        1.551336  -0.000000
  114        1.602713  -0.000000
  115        1.764882  -0.000000
  116        1.780124  -0.000000
  117        1.783042  -0.000000
  118        1.963821  -0.000000
  119        1.992172  -0.000000
  120        2.011722  -0.000000
  121        2.018543  -0.000000
  122        2.051358  -0.000000
  123        2.097502  -0.000000
  124        2.220300  -0.000000
  125        2.283766  -0.000000
  126        2.353310  -0.000000
  127        2.458057  -0.000000
  128        2.508316  -0.000000

  0.1111111E+00  0.3729374E-15  0.3860503E-15  0.6734007E-02
    1      -13.833598   1.000000
    2      -12.565969   1.000000
    3      -12.477674   1.000000
    4      -11.761024   1.000000
    5      -11.562927   1.000000
    6      -11.159957   1.000000
    7      -11.024967   1.000000
    8      -11.013169   1.000000
    9      -10.988687   1.000000
   10      -10.575066   1.000000
   11      -10.574611   1.000000
   12      -10.410157   1.000000
   13      -10.168281   1.000000
   14      -10.162961   1.000000
   15       -9.679676   1.000000
   16       -9.676777   1.000000
   17       -9.162740   1.000000
   18       -9.098654   1.000000
   19       -9.086842   1.000000
   20       -8.492395   1.000000
   21       -8.491219   1.000000
   22       -8.403866   1.000000
   23       -8.386955   1.000000
   24       -7.977355   1.000000
   25       -7.946733   1.000000
   26       -7.937555   1.000000
   27       -7.575717   1.000000
   28       -7.514394   1.000000
   29       -7.022213   1.000000
   30       -6.480155   1.000000
   31       -6.464356   1.000000
   32       -6.404924   1.000000
   33       -6.147854   1.000000
   34       -6.110451   1.000000
   35       -5.942134   1.000000
   36       -5.881996   1.000000
   37       -5.527464   1.000000
   38       -5.475808   1.000000
   39       -5.368270   1.000000
   40       -5.305274   1.000000
   41       -5.196857   1.000000
   42       -5.190345   1.000000
   43       -5.114191   1.000000
   44       -4.984338   1.000000
   45       -4.808735   1.000000
   46       -4.797553   1.000000
   47       -4.702479   1.000000
   48       -4.659441   1.000000
   49       -4.581348   1.000000
   50       -4.563268   1.000000
   51       -4.495178   1.000000
   52       -4.439951   1.000000
   53       -4.387201   1.000000
   54       -4.234709   1.000000
   55       -4.213364   1.000000
   56       -4.151945   1.000000
   57       -4.079919   1.000000
   58       -4.013528   1.000000
   59       -4.008389   1.000000
   60       -3.920898   1.000000
   61       -3.830019   1.000000
   62       -3.720037   1.000000
   63       -3.713146   1.000000
   64       -3.552843   1.000000
   65       -3.424863   1.000000
   66       -3.379583   1.000000
   67       -3.301635   1.000000
   68       -3.300522   1.000000
   69       -3.253608   1.000000
   70       -3.238179   1.000000
   71       -3.199678   1.000000
   72       -3.111542   1.000000
   73       -3.089891   1.000000
   74       -2.966307   1.000000
   75       -2.705083   1.000000
   76       -2.319100   1.000000
   77       -2.178316   1.000000
   78       -2.153646   1.000000
   79       -2.096184   1.000000
   80       -2.010885   1.000000
   81       -1.894361   1.000000
   82       -1.602383   1.000000
   83       -1.559557   1.000000
   84       -1.539086   1.000000
   85       -1.425629   1.000000
   86       -1.025772   1.000000
   87       -0.936592   1.000000
   88       -0.865320   1.000000
   89       -0.764362   1.000000
   90       -0.372741   1.000000
   91       -0.185559   1.000002
   92       -0.010900   1.012804
   93        0.021075   1.026566
   94        0.099618   0.972648
   95        0.132598   0.816019
   96        0.210794   0.207291
   97        0.338154  -0.020922
   98        0.475127  -0.000085
   99        0.478911  -0.000069
  100        0.637956  -0.000000
  101        0.654496  -0.000000
  102        0.740372  -0.000000
  103        0.782467  -0.000000
  104        0.785242  -0.000000
  105        0.970240  -0.000000
  106        1.054237  -0.000000
  107        1.061204  -0.000000
  108        1.312945  -0.000000
  109        1.391640  -0.000000
  110        1.400733  -0.000000
  111        1.511355  -0.000000
  112        1.544490  -0.000000
  113        1.561168  -0.000000
  114        1.628746  -0.000000
  115        1.751808  -0.000000
  116        1.756867  -0.000000
  117        1.758442  -0.000000
  118        1.955812  -0.000000
  119        1.976407  -0.000000
  120        2.009120  -0.000000
  121        2.025141  -0.000000
  122        2.043034  -0.000000
  123        2.097555  -0.000000
  124        2.191402  -0.000000
  125        2.244261  -0.000000
  126        2.330752  -0.000000
  127        2.447185  -0.000000
  128        2.508500  -0.000000

  0.2222222E+00  0.3922785E-15  0.3630220E-15  0.6734007E-02
    1      -13.753200   1.000000
    2      -12.716056   1.000000
    3      -12.490528   1.000000
    4      -11.726440   1.000000
    5      -11.517980   1.000000
    6      -11.248896   1.000000
    7      -11.011002   1.000000
    8      -11.006855   1.000000
    9      -10.938977   1.000000
   10      -10.564255   1.000000
   11      -10.563017   1.000000
   12      -10.440568   1.000000
   13      -10.131118   1.000000
   14      -10.125951   1.000000
   15       -9.672305   1.000000
   16       -9.668739   1.000000
   17       -9.135067   1.000000
   18       -9.130972   1.000000
   19       -9.049522   1.000000
   20       -8.599382   1.000000
   21       -8.595384   1.000000
   22       -8.395199   1.000000
   23       -8.383572   1.000000
   24       -8.036435   1.000000
   25       -8.033953   1.000000
   26       -7.824701   1.000000
   27       -7.780627   1.000000
   28       -7.473583   1.000000
   29       -6.958614   1.000000
   30       -6.438859   1.000000
   31       -6.422274   1.000000
   32       -6.226409   1.000000
   33       -6.123088   1.000000
   34       -6.071741   1.000000
   35       -6.037303   1.000000
   36       -5.815246   1.000000
   37       -5.511364   1.000000
   38       -5.476183   1.000000
   39       -5.434706   1.000000
   40       -5.356875   1.000000
   41       -5.110069   1.000000
   42       -5.061995   1.000000
   43       -5.041643   1.000000
   44       -4.943158   1.000000
   45       -4.889185   1.000000
   46       -4.847422   1.000000
   47       -4.834207   1.000000
   48       -4.564784   1.000000
   49       -4.556355   1.000000
   50       -4.541451   1.000000
   51       -4.467000   1.000000
   52       -4.400499   1.000000
   53       -4.358461   1.000000
   54       -4.251126   1.000000
   55       -4.213202   1.000000
   56       -4.091402   1.000000
   57       -4.090675   1.000000
   58       -4.032301   1.000000
   59       -4.031468   1.000000
   60       -3.888287   1.000000
   61       -3.835334   1.000000
   62       -3.742426   1.000000
   63       -3.681230   1.000000
   64       -3.637263   1.000000
   65       -3.479149   1.000000
   66       -3.375596   1.000000
   67       -3.371371   1.000000
   68       -3.272233   1.000000
   69       -3.243435   1.000000
   70       -3.230785   1.000000
   71       -3.188827   1.000000
   72       -3.087060   1.000000
   73       -3.027725   1.000000
   74       -2.888871   1.000000
   75       -2.793259   1.000000
   76       -2.332373   1.000000
   77       -2.279783   1.000000
   78       -2.129016   1.000000
   79       -2.123465   1.000000
   80       -2.036286   1.000000
   81       -1.905825   1.000000
   82       -1.606817   1.000000
   83       -1.554814   1.000000
   84       -1.466051   1.000000
   85       -1.340824   1.000000
   86       -0.992561   1.000000
   87       -0.942658   1.000000
   88       -0.837658   1.000000
   89       -0.529843   1.000000
   90       -0.505217   1.000000
   91       -0.333034   1.000000
   92       -0.184906   1.000002
   93       -0.029166   1.007332
   94       -0.007287   1.014137
   95        0.201779   0.270835
   96        0.300005  -0.035219
   97        0.351152  -0.015344
   98        0.353775  -0.014320
   99        0.495648  -0.000026
  100        0.632299  -0.000000
  101        0.682184  -0.000000
  102        0.717972  -0.000000
  103        0.806445  -0.000000
  104        0.813159  -0.000000
  105        1.014053  -0.000000
  106        1.205311  -0.000000
  107        1.208472  -0.000000
  108        1.313464  -0.000000
  109        1.433219  -0.000000
  110        1.478813  -0.000000
  111        1.505975  -0.000000
  112        1.584193  -0.000000
  113        1.585253  -0.000000
  114        1.672474  -0.000000
  115        1.694377  -0.000000
  116        1.722399  -0.000000
  117        1.738419  -0.000000
  118        1.925051  -0.000000
  119        1.952615  -0.000000
  120        1.991599  -0.000000
  121        2.010430  -0.000000
  122        2.046457  -0.000000
  123        2.106470  -0.000000
  124        2.145633  -0.000000
  125        2.211286  -0.000000
  126        2.283278  -0.000000
  127        2.332881  -0.000000
  128        2.444062  -0.000000

  0.3333333E+00  0.3713828E-15  0.3468587E-15  0.6734007E-02
    1      -13.621816   1.000000
    2      -12.977111   1.000000
    3      -12.368577   1.000000
    4      -11.834358   1.000000
    5      -11.451997   1.000000
    6      -11.288775   1.000000
    7      -10.997231   1.000000
    8      -10.995529   1.000000
    9      -10.858201   1.000000
   10      -10.555991   1.000000
   11      -10.545092   1.000000
   12      -10.514316   1.000000
   13      -10.093925   1.000000
   14      -10.090057   1.000000
   15       -9.658301   1.000000
   16       -9.654227   1.000000
   17       -9.154666   1.000000
   18       -9.152464   1.000000
   19       -8.883883   1.000000
   20       -8.739527   1.000000
   21       -8.734210   1.000000
   22       -8.378415   1.000000
   23       -8.378024   1.000000
   24       -8.135715   1.000000
   25       -8.121866   1.000000
   26       -8.088008   1.000000
   27       -7.538721   1.000000
   28       -7.348328   1.000000
   29       -6.995593   1.000000
   30       -6.456407   1.000000
   31       -6.394095   1.000000
   32       -6.353232   1.000000
   33       -6.054895   1.000000
   34       -6.015792   1.000000
   35       -5.894489   1.000000
   36       -5.699744   1.000000
   37       -5.544832   1.000000
   38       -5.447691   1.000000
   39       -5.383005   1.000000
   40       -5.354004   1.000000
   41       -5.089563   1.000000
   42       -5.088783   1.000000
   43       -5.030919   1.000000
   44       -5.011948   1.000000
   45       -4.892589   1.000000
   46       -4.827599   1.000000
   47       -4.756557   1.000000
   48       -4.549952   1.000000
   49       -4.514028   1.000000
   50       -4.498137   1.000000
   51       -4.452103   1.000000
   52       -4.416929   1.000000
   53       -4.376021   1.000000
   54       -4.231303   1.000000
   55       -4.143595   1.000000
   56       -4.138921   1.000000
   57       -4.073647   1.000000
   58       -4.003145   1.000000
   59       -3.983712   1.000000
   60       -3.871719   1.000000
   61       -3.824543   1.000000
   62       -3.764506   1.000000
   63       -3.738616   1.000000
   64       -3.664173   1.000000
   65       -3.606954   1.000000
   66       -3.405170   1.000000
   67       -3.382061   1.000000
   68       -3.300349   1.000000
   69       -3.247629   1.000000
   70       -3.228401   1.000000
   71       -3.143019   1.000000
   72       -3.086583   1.000000
   73       -2.910101   1.000000
   74       -2.806077   1.000000
   75       -2.761304   1.000000
   76       -2.424848   1.000000
   77       -2.393161   1.000000
   78       -2.255877   1.000000
   79       -2.146629   1.000000
   80       -2.009567   1.000000
   81       -1.840263   1.000000
   82       -1.693975   1.000000
   83       -1.542955   1.000000
   84       -1.461992   1.000000
   85       -1.098964   1.000000
   86       -0.949574   1.000000
   87       -0.915977   1.000000
   88       -0.699069   1.000000
   89       -0.650706   1.000000
   90       -0.491644   1.000000
   91       -0.386946   1.000000
   92       -0.207220   1.000001
   93       -0.183337   1.000003
   94       -0.174171   1.000005
   95        0.215557   0.176482
   96        0.286379  -0.033853
   97        0.293770  -0.035382
   98        0.430006  -0.000861
   99        0.467571  -0.000129
  100        0.678040  -0.000000
  101        0.697361  -0.000000
  102        0.743437  -0.000000
  103        0.746490  -0.000000
  104        0.980108  -0.000000
  105        1.132292  -0.000000
  106        1.139894  -0.000000
  107        1.393087  -0.000000
  108        1.397787  -0.000000
  109        1.495564  -0.000000
  110        1.511444  -0.000000
  111        1.540182  -0.000000
  112        1.601844  -0.000000
  113        1.621182  -0.000000
  114        1.628348  -0.000000
  115        1.654888  -0.000000
  116        1.691391  -0.000000
  117        1.800353  -0.000000
  118        1.878953  -0.000000
  119        1.919773  -0.000000
  120        1.937489  -0.000000
  121        1.980661  -0.000000
  122        2.050951  -0.000000
  123        2.084147  -0.000000
  124        2.103271  -0.000000
  125        2.123559  -0.000000
  126        2.166635  -0.000000
  127        2.260771  -0.000000
  128        2.374643  -0.000000

  0.4444444E+00  0.3870091E-15  0.3932070E-15  0.6734007E-02
    1      -13.443656   1.000000
    2      -13.225338   1.000000
    3      -12.206934   1.000000
    4      -12.018874   1.000000
    5      -11.379685   1.000000
    6      -11.321189   1.000000
    7      -10.988580   1.000000
    8      -10.988083   1.000000
    9      -10.755082   1.000000
   10      -10.641384   1.000000
   11      -10.529524   1.000000
   12      -10.526756   1.000000
   13      -10.074520   1.000000
   14      -10.072699   1.000000
   15       -9.642428   1.000000
   16       -9.638545   1.000000
   17       -9.153920   1.000000
   18       -9.151839   1.000000
   19       -8.846209   1.000000
   20       -8.844809   1.000000
   21       -8.660620   1.000000
   22       -8.429745   1.000000
   23       -8.358342   1.000000
   24       -8.324143   1.000000
   25       -8.178763   1.000000
   26       -8.177960   1.000000
   27       -7.310593   1.000000
   28       -7.125403   1.000000
   29       -7.099501   1.000000
   30       -6.765755   1.000000
   31       -6.383632   1.000000
   32       -6.379143   1.000000
   33       -5.986145   1.000000
   34       -5.972395   1.000000
   35       -5.676044   1.000000
   36       -5.578739   1.000000
   37       -5.532672   1.000000
   38       -5.412334   1.000000
   39       -5.376067   1.000000
   40       -5.331311   1.000000
   41       -5.245325   1.000000
   42       -5.238191   1.000000
   43       -5.053360   1.000000
   44       -5.051598   1.000000
   45       -4.768697   1.000000
   46       -4.720540   1.000000
   47       -4.639459   1.000000
   48       -4.613841   1.000000
   49       -4.556107   1.000000
   50       -4.463750   1.000000
   51       -4.443816   1.000000
   52       -4.375633   1.000000
   53       -4.337844   1.000000
   54       -4.260654   1.000000
   55       -4.166690   1.000000
   56       -4.073754   1.000000
   57       -4.035651   1.000000
   58       -4.034318   1.000000
   59       -3.956933   1.000000
   60       -3.863010   1.000000
   61       -3.836766   1.000000
   62       -3.804101   1.000000
   63       -3.755342   1.000000
   64       -3.749835   1.000000
   65       -3.570198   1.000000
   66       -3.482140   1.000000
   67       -3.378759   1.000000
   68       -3.358920   1.000000
   69       -3.225925   1.000000
   70       -3.212734   1.000000
   71       -3.119308   1.000000
   72       -3.099221   1.000000
   73       -2.780352   1.000000
   74       -2.747324   1.000000
   75       -2.638516   1.000000
   76       -2.564921   1.000000
   77       -2.475777   1.000000
   78       -2.401784   1.000000
   79       -2.119818   1.000000
   80       -2.051735   1.000000
   81       -1.793314   1.000000
   82       -1.760401   1.000000
   83       -1.491536   1.000000
   84       -1.452147   1.000000
   85       -0.933942   1.000000
   86       -0.873499   1.000000
   87       -0.863030   1.000000
   88       -0.789443   1.000000
   89       -0.580401   1.000000
   90       -0.542178   1.000000
   91       -0.426985   1.000000
   92       -0.343921   1.000000
   93       -0.326874   1.000000
   94       -0.076034   1.001183
   95        0.137879   0.781176
   96        0.290650  -0.034992
   97        0.299022  -0.035319
   98        0.391196  -0.004329
   99        0.656201  -0.000000
  100        0.659784  -0.000000
  101        0.693614  -0.000000
  102        0.706214  -0.000000
  103        0.733405  -0.000000
  104        0.919004  -0.000000
  105        1.289502  -0.000000
  106        1.307582  -0.000000
  107        1.411522  -0.000000
  108        1.500038  -0.000000
  109        1.515788  -0.000000
  110        1.547026  -0.000000
  111        1.562022  -0.000000
  112        1.608326  -0.000000
  113        1.608901  -0.000000
  114        1.645988  -0.000000
  115        1.652811  -0.000000
  116        1.691283  -0.000000
  117        1.701352  -0.000000
  118        1.845134  -0.000000
  119        1.859530  -0.000000
  120        1.884734  -0.000000
  121        1.919040  -0.000000
  122        1.951942  -0.000000
  123        2.058149  -0.000000
  124        2.114959  -0.000000
  125        2.186940  -0.000000
  126        2.231672  -0.000000
  127        2.258444  -0.000000
  128        2.340541  -0.000000

  0.3742002E-15  0.9090909E-01  0.3596334E-15  0.6734007E-02
    1      -13.827381   1.000000
    2      -12.560973   1.000000
    3      -12.365801   1.000000
    4      -11.787723   1.000000
    5      -11.556939   1.000000
    6      -11.227767   1.000000
    7      -11.173284   1.000000
    8      -11.081048   1.000000
    9      -10.986890   1.000000
   10      -10.596473   1.000000
   11      -10.569342   1.000000
   12      -10.388560   1.000000
   13      -10.123804   1.000000
   14      -10.122467   1.000000
   15       -9.712519   1.000000
   16       -9.693946   1.000000
   17       -9.161688   1.000000
   18       -9.091354   1.000000
   19       -9.073853   1.000000
   20       -8.548086   1.000000
   21       -8.542948   1.000000
   22       -8.256513   1.000000
   23       -8.244871   1.000000
   24       -7.985802   1.000000
   25       -7.770933   1.000000
   26       -7.734805   1.000000
   27       -7.503942   1.000000
   28       -7.488206   1.000000
   29       -7.076855   1.000000
   30       -6.557054   1.000000
   31       -6.475829   1.000000
   32       -6.434327   1.000000
   33       -6.166392   1.000000
   34       -6.105395   1.000000
   35       -5.968918   1.000000
   36       -5.815413   1.000000
   37       -5.562975   1.000000
   38       -5.507428   1.000000
   39       -5.363507   1.000000
   40       -5.281834   1.000000
   41       -5.256020   1.000000
   42       -5.210398   1.000000
   43       -5.141282   1.000000
   44       -4.961668   1.000000
   45       -4.868400   1.000000
   46       -4.813541   1.000000
   47       -4.735519   1.000000
   48       -4.700270   1.000000
   49       -4.675346   1.000000
   50       -4.622804   1.000000
   51       -4.526761   1.000000
   52       -4.505708   1.000000
   53       -4.390255   1.000000
   54       -4.281268   1.000000
   55       -4.257272   1.000000
   56       -4.116191   1.000000
   57       -4.106513   1.000000
   58       -4.007469   1.000000
   59       -3.987637   1.000000
   60       -3.897963   1.000000
   61       -3.883520   1.000000
   62       -3.762611   1.000000
   63       -3.678858   1.000000
   64       -3.482566   1.000000
   65       -3.467761   1.000000
   66       -3.381622   1.000000
   67       -3.371561   1.000000
   68       -3.297513   1.000000
   69       -3.243741   1.000000
   70       -3.219730   1.000000
   71       -3.153371   1.000000
   72       -3.121898   1.000000
   73       -2.981734   1.000000
   74       -2.976780   1.000000
   75       -2.840623   1.000000
   76       -2.302699   1.000000
   77       -2.168191   1.000000
   78       -2.104746   1.000000
   79       -2.059023   1.000000
   80       -1.885064   1.000000
   81       -1.868567   1.000000
   82       -1.696834   1.000000
   83       -1.584424   1.000000
   84       -1.562226   1.000000
   85       -1.351378   1.000000
   86       -1.064264   1.000000
   87       -0.947481   1.000000
   88       -0.943928   1.000000
   89       -0.869099   1.000000
   90       -0.445944   1.000000
   91       -0.215347   1.000000
   92       -0.126989   1.000091
   93        0.001696   1.017775
   94        0.096673   0.981429
   95        0.118369   0.896881
   96        0.138306   0.778254
   97        0.248089   0.025067
   98        0.424500  -0.001106
   99        0.500427  -0.000019
  100        0.586887  -0.000000
  101        0.708599  -0.000000
  102        0.732256  -0.000000
  103        0.781051  -0.000000
  104        0.997935  -0.000000
  105        1.047080  -0.000000
  106        1.050237  -0.000000
  107        1.092504  -0.000000
  108        1.267180  -0.000000
  109        1.388867  -0.000000
  110        1.438614  -0.000000
  111        1.502692  -0.000000
  112        1.515880  -0.000000
  113        1.539461  -0.000000
  114        1.614106  -0.000000
  115        1.742542  -0.000000
  116        1.751107  -0.000000
  117        1.796423  -0.000000
  118        1.853201  -0.000000
  119        1.912384  -0.000000
  120        2.025466  -0.000000
  121        2.037190  -0.000000
  122        2.075584  -0.000000
  123        2.120694  -0.000000
  124        2.176909  -0.000000
  125        2.260236  -0.000000
  126        2.335517  -0.000000
  127        2.457338  -0.000000
  128        2.576846  -0.000000

  0.1111111E+00  0.9090909E-01  0.4822234E-15  0.6734007E-02
    1      -13.778468   1.000000
    2      -12.548609   1.000000
    3      -12.514960   1.000000
    4      -11.716061   1.000000
    5      -11.528093   1.000000
    6      -11.275297   1.000000
    7      -11.166121   1.000000
    8      -11.118480   1.000000
    9      -10.954851   1.000000
   10      -10.599378   1.000000
   11      -10.504785   1.000000
   12      -10.393935   1.000000
   13      -10.135943   1.000000
   14      -10.119443   1.000000
   15       -9.726846   1.000000
   16       -9.665901   1.000000
   17       -9.140442   1.000000
   18       -9.087918   1.000000
   19       -9.065423   1.000000
   20       -8.592300   1.000000
   21       -8.588349   1.000000
   22       -8.322733   1.000000
   23       -8.273676   1.000000
   24       -7.871194   1.000000
   25       -7.817910   1.000000
   26       -7.769575   1.000000
   27       -7.673535   1.000000
   28       -7.476566   1.000000
   29       -6.996743   1.000000
   30       -6.602546   1.000000
   31       -6.371134   1.000000
   32       -6.312000   1.000000
   33       -6.148147   1.000000
   34       -6.048249   1.000000
   35       -5.989780   1.000000
   36       -5.867002   1.000000
   37       -5.622231   1.000000
   38       -5.461002   1.000000
   39       -5.340970   1.000000
   40       -5.307928   1.000000
   41       -5.186868   1.000000
   42       -5.184172   1.000000
   43       -5.099607   1.000000
   44       -4.987288   1.000000
   45       -4.920622   1.000000
   46       -4.898804   1.000000
   47       -4.744143   1.000000
   48       -4.626770   1.000000
   49       -4.624479   1.000000
   50       -4.568536   1.000000
   51       -4.518606   1.000000
   52       -4.410944   1.000000
   53       -4.368166   1.000000
   54       -4.322680   1.000000
   55       -4.217527   1.000000
   56       -4.168467   1.000000
   57       -4.139670   1.000000
   58       -4.046187   1.000000
   59       -3.976891   1.000000
   60       -3.921292   1.000000
   61       -3.859599   1.000000
   62       -3.720573   1.000000
   63       -3.668978   1.000000
   64       -3.525683   1.000000
   65       -3.477325   1.000000
   66       -3.425069   1.000000
   67       -3.421072   1.000000
   68       -3.291801   1.000000
   69       -3.217621   1.000000
   70       -3.168740   1.000000
   71       -3.138231   1.000000
   72       -3.089135   1.000000
   73       -3.033018   1.000000
   74       -2.955315   1.000000
   75       -2.858832   1.000000
   76       -2.321822   1.000000
   77       -2.179961   1.000000
   78       -2.144002   1.000000
   79       -2.087248   1.000000
   80       -1.931935   1.000000
   81       -1.905886   1.000000
   82       -1.614134   1.000000
   83       -1.596175   1.000000
   84       -1.519198   1.000000
   85       -1.363802   1.000000
   86       -1.055372   1.000000
   87       -0.901405   1.000000
   88       -0.900761   1.000000
   89       -0.756220   1.000000
   90       -0.536220   1.000000
   91       -0.219810   1.000000
   92       -0.162020   1.000011
   93       -0.054925   1.002876
   94        0.050729   1.035457
   95        0.072320   1.026293
   96        0.263344  -0.011156
   97        0.277621  -0.028906
   98        0.360326  -0.011943
   99        0.466442  -0.000138
  100        0.556129  -0.000000
  101        0.686045  -0.000000
  102        0.789709  -0.000000
  103        0.854155  -0.000000
  104        0.923050  -0.000000
  105        1.015667  -0.000000
  106        1.066347  -0.000000
  107        1.237835  -0.000000
  108        1.345813  -0.000000
  109        1.375377  -0.000000
  110        1.417021  -0.000000
  111        1.528586  -0.000000
  112        1.537614  -0.000000
  113        1.588237  -0.000000
  114        1.663627  -0.000000
  115        1.725667  -0.000000
  116        1.738398  -0.000000
  117        1.760958  -0.000000
  118        1.805104  -0.000000
  119        1.937779  -0.000000
  120        1.983279  -0.000000
  121        2.047003  -0.000000
  122        2.073290  -0.000000