   52   52    1    1
  0.2272233E+02  0.8645320E-09  0.6085000E-09  0.2593596E-08  0.5000000E-15
   1.0000000000000000E-004
  CAR 
 Name                                    
    192    149    128

  0.3742002E-15  0.3742002E-15  0.3742002E-15  0.3367003E-02
    1      -13.796061   1.000000
    2      -12.526970   1.000000
    3      -12.300391   1.000000
    4      -11.757201   1.000000
    5      -11.517582   1.000000
    6      -11.052075   1.000000
    7      -10.965876   1.000000
    8      -10.942893   1.000000
    9      -10.940401   1.000000
   10      -10.500124   1.000000
   11      -10.499969   1.000000
   12      -10.346903   1.000000
   13      -10.109103   1.000000
   14      -10.104887   1.000000
   15       -9.607748   1.000000
   16       -9.604766   1.000000
   17       -9.108516   1.000000
   18       -9.009668   1.000000
   19       -8.997666   1.000000
   20       -8.380776   1.000000
   21       -8.377742   1.000000
   22       -8.319172   1.000000
   23       -8.303687   1.000000
   24       -7.929825   1.000000
   25       -7.833695   1.000000
   26       -7.833034   1.000000
   27       -7.423812   1.000000
   28       -7.356425   1.000000
   29       -6.995771   1.000000
   30       -6.395244   1.000000
   31       -6.384201   1.000000
   32       -6.369627   1.000000
   33       -6.066759   1.000000
   34       -6.031087   1.000000
   35       -5.803341   1.000000
   36       -5.772226   1.000000
   37       -5.389107   1.000000
   38       -5.314838   1.000000
   39       -5.295638   1.000000
   40       -5.259377   1.000000
   41       -5.154924   1.000000
   42       -5.125082   1.000000
   43       -4.917846   1.000000
   44       -4.818532   1.000000
   45       -4.748298   1.000000
   46       -4.651904   1.000000
   47       -4.603408   1.000000
   48       -4.589342   1.000000
   49       -4.472818   1.000000
   50       -4.435354   1.000000
   51       -4.398783   1.000000
   52       -4.380596   1.000000
   53       -4.301258   1.000000
   54       -4.140872   1.000000
   55       -4.130269   1.000000
   56       -3.993816   1.000000
   57       -3.977136   1.000000
   58       -3.888871   1.000000
   59       -3.871593   1.000000
   60       -3.808451   1.000000
   61       -3.726484   1.000000
   62       -3.634737   1.000000
   63       -3.595536   1.000000
   64       -3.369606   1.000000
   65       -3.319679   1.000000
   66       -3.301830   1.000000
   67       -3.261525   1.000000
   68       -3.192991   1.000000
   69       -3.133648   1.000000
   70       -3.132972   1.000000
   71       -3.056200   1.000000
   72       -3.004931   1.000000
   73       -2.981549   1.000000
   74       -2.879352   1.000000
   75       -2.538027   1.000000
   76       -2.213763   1.000000
   77       -2.078516   1.000000
   78       -2.052050   1.000000
   79       -1.984432   1.000000
   80       -1.875243   1.000000
   81       -1.765381   1.000000
   82       -1.575801   1.000000
   83       -1.458862   1.000000
   84       -1.447039   1.000000
   85       -1.289333   1.000000
   86       -0.936456   1.000000
   87       -0.831161   1.000000
   88       -0.783657   1.000000
   89       -0.718073   1.000000
   90       -0.201441   1.000000
   91        0.001498   1.000234
   92        0.108895   1.016175
   93        0.175393   1.032181
   94        0.214232   0.960812
   95        0.310770   0.285978
   96        0.317306   0.238261
   97        0.324812   0.187657
   98        0.634535  -0.000004
   99        0.651922  -0.000001
  100        0.773920  -0.000000
  101        0.794773  -0.000000
  102        0.801992  -0.000000
  103        0.808237  -0.000000
  104        0.903597  -0.000000
  105        1.099635  -0.000000
  106        1.134859  -0.000000
  107        1.139004  -0.000000
  108        1.361829  -0.000000
  109        1.457915  -0.000000
  110        1.522256  -0.000000
  111        1.622597  -0.000000
  112        1.640404  -0.000000
  113        1.660388  -0.000000
  114        1.713947  -0.000000
  115        1.873850  -0.000000
  116        1.885666  -0.000000
  117        1.887432  -0.000000
  118        2.072278  -0.000000
  119        2.074750  -0.000000
  120        2.114774  -0.000000
  121        2.150385  -0.000000
  122        2.157978  -0.000000
  123        2.241614  -0.000000
  124        2.327194  -0.000000
  125        2.378647  -0.000000
  126        2.486396  -0.000000
  127        2.583867  -0.000000
  128        3.512302   0.000000

  0.1111111E+00  0.3729374E-15  0.3860503E-15  0.6734007E-02
    1      -13.769017   1.000000
    2      -12.501511   1.000000
    3      -12.416413   1.000000
    4      -11.699792   1.000000
    5      -11.501816   1.000000
    6      -11.099968   1.000000
    7      -10.957789   1.000000
    8      -10.945340   1.000000
    9      -10.925998   1.000000
   10      -10.496939   1.000000
   11      -10.496582   1.000000
   12      -10.347389   1.000000
   13      -10.094055   1.000000
   14      -10.089665   1.000000
   15       -9.604897   1.000000
   16       -9.601693   1.000000
   17       -9.080674   1.000000
   18       -9.024959   1.000000
   19       -9.010699   1.000000
   20       -8.411686   1.000000
   21       -8.409937   1.000000
   22       -8.324044   1.000000
   23       -8.307680   1.000000
   24       -7.886408   1.000000
   25       -7.870582   1.000000
   26       -7.846403   1.000000
   27       -7.486445   1.000000
   28       -7.419099   1.000000
   29       -6.925770   1.000000
   30       -6.372992   1.000000
   31       -6.356613   1.000000
   32       -6.303650   1.000000
   33       -6.039293   1.000000
   34       -6.002500   1.000000
   35       -5.839379   1.000000
   36       -5.769922   1.000000
   37       -5.421793   1.000000
   38       -5.367688   1.000000
   39       -5.268638   1.000000
   40       -5.196908   1.000000
   41       -5.088054   1.000000
   42       -5.085978   1.000000
   43       -5.010283   1.000000
   44       -4.871009   1.000000
   45       -4.702704   1.000000
   46       -4.690346   1.000000
   47       -4.592027   1.000000
   48       -4.549818   1.000000
   49       -4.471365   1.000000
   50       -4.453301   1.000000
   51       -4.385520   1.000000
   52       -4.327001   1.000000
   53       -4.285757   1.000000
   54       -4.128886   1.000000
   55       -4.102477   1.000000
   56       -4.043841   1.000000
   57       -3.971931   1.000000
   58       -3.902541   1.000000
   59       -3.897112   1.000000
   60       -3.808186   1.000000
   61       -3.721145   1.000000
   62       -3.608745   1.000000
   63       -3.607175   1.000000
   64       -3.446284   1.000000
   65       -3.316299   1.000000
   66       -3.271291   1.000000
   67       -3.193100   1.000000
   68       -3.190438   1.000000
   69       -3.142099   1.000000
   70       -3.131785   1.000000
   71       -3.084888   1.000000
   72       -3.002443   1.000000
   73       -2.984456   1.000000
   74       -2.860008   1.000000
   75       -2.585291   1.000000
   76       -2.217075   1.000000
   77       -2.070241   1.000000
   78       -2.049231   1.000000
   79       -1.987559   1.000000
   80       -1.909317   1.000000
   81       -1.790970   1.000000
   82       -1.495064   1.000000
   83       -1.455859   1.000000
   84       -1.432701   1.000000
   85       -1.317250   1.000000
   86       -0.918457   1.000000
   87       -0.833442   1.000000
   88       -0.759173   1.000000
   89       -0.655101   1.000000
   90       -0.265323   1.000000
   91       -0.063321   1.000005
   92        0.100291   1.012866
   93        0.129537   1.025395
   94        0.209989   0.974650
   95        0.242248   0.824642
   96        0.320262   0.217763
   97        0.445194  -0.022746
   98        0.589094  -0.000072
   99        0.590380  -0.000067
  100        0.743337  -0.000000
  101        0.771774  -0.000000
  102        0.854656  -0.000000
  103        0.900512  -0.000000
  104        0.902801  -0.000000
  105        1.086910  -0.000000
  106        1.164638  -0.000000
  107        1.170977  -0.000000
  108        1.430289  -0.000000
  109        1.500633  -0.000000
  110        1.511156  -0.000000
  111        1.621383  -0.000000
  112        1.656667  -0.000000
  113        1.670476  -0.000000
  114        1.740543  -0.000000
  115        1.858602  -0.000000
  116        1.863144  -0.000000
  117        1.864642  -0.000000
  118        2.059807  -0.000000
  119        2.070290  -0.000000
  120        2.118181  -0.000000
  121        2.133452  -0.000000
  122        2.151289  -0.000000
  123        2.226348  -0.000000
  124        2.297534  -0.000000
  125        2.361225  -0.000000
  126        2.463133  -0.000000
  127        2.574267  -0.000000
  128        4.000788   0.000000

  0.2222222E+00  0.3922785E-15  0.3630220E-15  0.6734007E-02
    1      -13.688656   1.000000
    2      -12.653427   1.000000
    3      -12.426204   1.000000
    4      -11.666399   1.000000
    5      -11.457038   1.000000
    6      -11.187325   1.000000
    7      -10.942871   1.000000
    8      -10.938568   1.000000
    9      -10.877297   1.000000
   10      -10.487106   1.000000
   11      -10.485677   1.000000
   12      -10.379648   1.000000
   13      -10.057824   1.000000
   14      -10.053499   1.000000
   15       -9.596129   1.000000
   16       -9.592443   1.000000
   17       -9.058975   1.000000
   18       -9.056697   1.000000
   19       -8.963947   1.000000
   20       -8.517985   1.000000
   21       -8.513259   1.000000
   22       -8.315526   1.000000
   23       -8.304384   1.000000
   24       -7.959574   1.000000
   25       -7.957655   1.000000
   26       -7.735046   1.000000
   27       -7.676010   1.000000
   28       -7.377760   1.000000
   29       -6.863842   1.000000
   30       -6.332325   1.000000
   31       -6.315192   1.000000
   32       -6.125087   1.000000
   33       -6.016124   1.000000
   34       -5.965686   1.000000
   35       -5.931190   1.000000
   36       -5.702851   1.000000
   37       -5.405614   1.000000
   38       -5.370622   1.000000
   39       -5.328219   1.000000
   40       -5.257863   1.000000
   41       -5.004472   1.000000
   42       -4.956060   1.000000
   43       -4.935246   1.000000
   44       -4.831585   1.000000
   45       -4.780647   1.000000
   46       -4.737401   1.000000
   47       -4.722203   1.000000
   48       -4.455185   1.000000
   49       -4.449321   1.000000
   50       -4.430353   1.000000
   51       -4.359086   1.000000
   52       -4.289196   1.000000
   53       -4.253118   1.000000
   54       -4.146698   1.000000
   55       -4.102480   1.000000
   56       -3.982271   1.000000
   57       -3.981774   1.000000
   58       -3.920131   1.000000
   59       -3.917985   1.000000
   60       -3.778963   1.000000
   61       -3.727449   1.000000
   62       -3.637743   1.000000
   63       -3.570654   1.000000
   64       -3.528105   1.000000
   65       -3.363309   1.000000
   66       -3.267780   1.000000
   67       -3.258161   1.000000
   68       -3.163464   1.000000
   69       -3.137429   1.000000
   70       -3.122968   1.000000
   71       -3.080205   1.000000
   72       -2.976437   1.000000
   73       -2.921932   1.000000
   74       -2.781227   1.000000
   75       -2.678204   1.000000
   76       -2.232082   1.000000
   77       -2.173619   1.000000
   78       -2.025926   1.000000
   79       -2.019713   1.000000
   80       -1.929561   1.000000
   81       -1.799041   1.000000
   82       -1.502841   1.000000
   83       -1.451440   1.000000
   84       -1.357748   1.000000
   85       -1.230414   1.000000
   86       -0.885660   1.000000
   87       -0.837228   1.000000
   88       -0.729227   1.000000
   89       -0.420023   1.000000
   90       -0.397360   1.000000
   91       -0.213302   1.000000
   92       -0.073500   1.000003
   93        0.081078   1.007146
   94        0.103108   1.013901
   95        0.309724   0.293902
   96        0.408636  -0.035416
   97        0.463185  -0.014943
   98        0.466573  -0.013648
   99        0.601729  -0.000035
  100        0.741132  -0.000000
  101        0.798586  -0.000000
  102        0.831108  -0.000000
  103        0.921515  -0.000000
  104        0.928649  -0.000000
  105        1.127600  -0.000000
  106        1.315322  -0.000000
  107        1.317785  -0.000000
  108        1.423028  -0.000000
  109        1.549518  -0.000000
  110        1.590464  -0.000000
  111        1.615841  -0.000000
  112        1.693087  -0.000000
  113        1.697468  -0.000000
  114        1.782894  -0.000000
  115        1.800133  -0.000000
  116        1.829553  -0.000000
  117        1.846910  -0.000000
  118        2.025052  -0.000000
  119        2.050818  -0.000000
  120        2.103092  -0.000000
  121        2.131646  -0.000000
  122        2.160371  -0.000000
  123        2.220516  -0.000000
  124        2.293752  -0.000000
  125        2.388766  -0.000000
  126        2.458214  -0.000000
  127        2.674197  -0.000000
  128        3.973049   0.000000

  0.3333333E+00  0.3713828E-15  0.3468587E-15  0.6734007E-02
    1      -13.557355   1.000000
    2      -12.913622   1.000000
    3      -12.304525   1.000000
    4      -11.773162   1.000000
    5      -11.391311   1.000000
    6      -11.227638   1.000000
    7      -10.928742   1.000000
    8      -10.927044   1.000000
    9      -10.796986   1.000000
   10      -10.485394   1.000000
   11      -10.468673   1.000000
   12      -10.448356   1.000000
   13      -10.021865   1.000000
   14      -10.018681   1.000000
   15       -9.580263   1.000000
   16       -9.576723   1.000000
   17       -9.077202   1.000000
   18       -9.076691   1.000000
   19       -8.796982   1.000000
   20       -8.657576   1.000000
   21       -8.651794   1.000000
   22       -8.298908   1.000000
   23       -8.298762   1.000000
   24       -8.056141   1.000000
   25       -8.045251   1.000000
   26       -8.002151   1.000000
   27       -7.434534   1.000000
   28       -7.251927   1.000000
   29       -6.901121   1.000000
   30       -6.350781   1.000000
   31       -6.287495   1.000000
   32       -6.246317   1.000000
   33       -5.950618   1.000000
   34       -5.911307   1.000000
   35       -5.791849   1.000000
   36       -5.587075   1.000000
   37       -5.442100   1.000000
   38       -5.343500   1.000000
   39       -5.275566   1.000000
   40       -5.252715   1.000000
   41       -4.984945   1.000000
   42       -4.976861   1.000000
   43       -4.923913   1.000000
   44       -4.902885   1.000000
   45       -4.782814   1.000000
   46       -4.720412   1.000000
   47       -4.644930   1.000000
   48       -4.441139   1.000000
   49       -4.406188   1.000000
   50       -4.389085   1.000000
   51       -4.345526   1.000000
   52       -4.304844   1.000000
   53       -4.266978   1.000000
   54       -4.128007   1.000000
   55       -4.029521   1.000000
   56       -4.023603   1.000000
   57       -3.965597   1.000000
   58       -3.894496   1.000000
   59       -3.873825   1.000000
   60       -3.763275   1.000000
   61       -3.715309   1.000000
   62       -3.659402   1.000000
   63       -3.630588   1.000000
   64       -3.544784   1.000000
   65       -3.495243   1.000000
   66       -3.295521   1.000000
   67       -3.274832   1.000000
   68       -3.191006   1.000000
   69       -3.138726   1.000000
   70       -3.121363   1.000000
   71       -3.034554   1.000000
   72       -2.974259   1.000000
   73       -2.803597   1.000000
   74       -2.698206   1.000000
   75       -2.652642   1.000000
   76       -2.319359   1.000000
   77       -2.294154   1.000000
   78       -2.152110   1.000000
   79       -2.043839   1.000000
   80       -1.903470   1.000000
   81       -1.732699   1.000000
   82       -1.590289   1.000000
   83       -1.438081   1.000000
   84       -1.353117   1.000000
   85       -0.989249   1.000000
   86       -0.842088   1.000000
   87       -0.808438   1.000000
   88       -0.588930   1.000000
   89       -0.542526   1.000000
   90       -0.374639   1.000000
   91       -0.275178   1.000000
   92       -0.097506   1.000000
   93       -0.072102   1.000003
   94       -0.065336   1.000004
   95        0.323782   0.194311
   96        0.398803  -0.034310
   97        0.405483  -0.035423
   98        0.535711  -0.001097
   99        0.577521  -0.000137
  100        0.792384  -0.000000
  101        0.809774  -0.000000
  102        0.854764  -0.000000
  103        0.858246  -0.000000
  104        1.090733  -0.000000
  105        1.244528  -0.000000
  106        1.251266  -0.000000
  107        1.503342  -0.000000
  108        1.508538  -0.000000
  109        1.607798  -0.000000
  110        1.623605  -0.000000
  111        1.650981  -0.000000
  112        1.709287  -0.000000
  113        1.731262  -0.000000
  114        1.733411  -0.000000
  115        1.760858  -0.000000
  116        1.796083  -0.000000
  117        1.912820  -0.000000
  118        1.983173  -0.000000
  119        2.031873  -0.000000
  120        2.041062  -0.000000
  121        2.101355  -0.000000
  122        2.169456  -0.000000
  123        2.191951  -0.000000
  124        2.226617  -0.000000
  125        2.249936  -0.000000
  126        2.335564  -0.000000
  127        2.396573  -0.000000
  128        2.597319  -0.000000

  0.4444444E+00  0.3870091E-15  0.3932070E-15  0.6734007E-02
    1      -13.379356   1.000000
    2      -13.161335   1.000000
    3      -12.143387   1.000000
    4      -11.956232   1.000000
    5      -11.319233   1.000000
    6      -11.260697   1.000000
    7      -10.919925   1.000000
    8      -10.919445   1.000000
    9      -10.694222   1.000000
   10      -10.580573   1.000000
   11      -10.453847   1.000000
   12      -10.451473   1.000000
   13      -10.003149   1.000000
   14      -10.002009   1.000000
   15       -9.562783   1.000000
   16       -9.561172   1.000000
   17       -9.074764   1.000000
   18       -9.074381   1.000000
   19       -8.764313   1.000000
   20       -8.763282   1.000000
   21       -8.572855   1.000000
   22       -8.344583   1.000000
   23       -8.278966   1.000000
   24       -8.241554   1.000000
   25       -8.101849   1.000000
   26       -8.101676   1.000000
   27       -7.210911   1.000000
   28       -7.029422   1.000000
   29       -6.998843   1.000000
   30       -6.661497   1.000000
   31       -6.276665   1.000000
   32       -6.273605   1.000000
   33       -5.879052   1.000000
   34       -5.871353   1.000000
   35       -5.574155   1.000000
   36       -5.474574   1.000000
   37       -5.422003   1.000000
   38       -5.307406   1.000000
   39       -5.271103   1.000000
   40       -5.225517   1.000000
   41       -5.135021   1.000000
   42       -5.134613   1.000000
   43       -4.944339   1.000000
   44       -4.943589   1.000000
   45       -4.658646   1.000000
   46       -4.612210   1.000000
   47       -4.530772   1.000000
   48       -4.504581   1.000000
   49       -4.445639   1.000000
   50       -4.356390   1.000000
   51       -4.336284   1.000000
   52       -4.267499   1.000000
   53       -4.225030   1.000000
   54       -4.145902   1.000000
   55       -4.061765   1.000000
   56       -3.966718   1.000000
   57       -3.928114   1.000000
   58       -3.921877   1.000000
   59       -3.845148   1.000000
   60       -3.744797   1.000000
   61       -3.727677   1.000000
   62       -3.696598   1.000000
   63       -3.647517   1.000000
   64       -3.641737   1.000000
   65       -3.457792   1.000000
   66       -3.370331   1.000000
   67       -3.270961   1.000000
   68       -3.249750   1.000000
   69       -3.116717   1.000000
   70       -3.103897   1.000000
   71       -3.011138   1.000000
   72       -2.989622   1.000000
   73       -2.674104   1.000000
   74       -2.641899   1.000000
   75       -2.529421   1.000000
   76       -2.458946   1.000000
   77       -2.376723   1.000000
   78       -2.298429   1.000000
   79       -2.016041   1.000000
   80       -1.946788   1.000000
   81       -1.688706   1.000000
   82       -1.657225   1.000000
   83       -1.383269   1.000000
   84       -1.342601   1.000000
   85       -0.825058   1.000000
   86       -0.764068   1.000000
   87       -0.753620   1.000000
   88       -0.680921   1.000000
   89       -0.466597   1.000000
   90       -0.430233   1.000000
   91       -0.316602   1.000000
   92       -0.232853   1.000000
   93       -0.219122   1.000000
   94        0.033060   1.001085
   95        0.245472   0.804063
   96        0.403821  -0.035298
   97        0.412451  -0.035030
   98        0.496998  -0.005230
   99        0.766280  -0.000000
  100        0.769180  -0.000000
  101        0.805680  -0.000000
  102        0.817132  -0.000000
  103        0.844556  -0.000000
  104        1.032816  -0.000000
  105        1.399897  -0.000000
  106        1.420489  -0.000000
  107        1.522493  -0.000000
  108        1.609857  -0.000000
  109        1.626160  -0.000000
  110        1.657985  -0.000000
  111        1.671669  -0.000000
  112        1.714170  -0.000000
  113        1.716845  -0.000000
  114        1.758162  -0.000000
  115        1.760625  -0.000000
  116        1.797919  -0.000000
  117        1.810036  -0.000000
  118        1.962439  -0.000000
  119        1.979599  -0.000000
  120        2.000157  -0.000000
  121        2.062451  -0.000000
  122        2.142301  -0.000000
  123        2.194806  -0.000000
  124        2.262811  -0.000000
  125        2.301331  -0.000000
  126        2.328327  -0.000000
  127        2.443872  -0.000000
  128        3.814391   0.000000

  0.3742002E-15  0.9090909E-01  0.3596334E-15  0.6734007E-02
    1      -13.762742   1.000000
    2      -12.496427   1.000000
    3      -12.305426   1.000000
    4      -11.725338   1.000000
    5      -11.495631   1.000000
    6      -11.159316   1.000000
    7      -11.104827   1.000000
    8      -11.021771   1.000000
    9      -10.924987   1.000000
   10      -10.521146   1.000000
   11      -10.493593   1.000000
   12      -10.324743   1.000000
   13      -10.049616   1.000000
   14      -10.048126   1.000000
   15       -9.638221   1.000000
   16       -9.620026   1.000000
   17       -9.080130   1.000000
   18       -9.014386   1.000000
   19       -8.999427   1.000000
   20       -8.471149   1.000000
   21       -8.466533   1.000000
   22       -8.173111   1.000000
   23       -8.163117   1.000000
   24       -7.880186   1.000000
   25       -7.691060   1.000000
   26       -7.655547   1.000000
   27       -7.415856   1.000000
   28       -7.393480   1.000000
   29       -6.979335   1.000000
   30       -6.450217   1.000000
   31       -6.367878   1.000000
   32       -6.332712   1.000000
   33       -6.057546   1.000000
   34       -5.997300   1.000000
   35       -5.860600   1.000000
   36       -5.710832   1.000000
   37       -5.455212   1.000000
   38       -5.403213   1.000000
   39       -5.261395   1.000000
   40       -5.171692   1.000000
   41       -5.151683   1.000000
   42       -5.100963   1.000000
   43       -5.032216   1.000000
   44       -4.852247   1.000000
   45       -4.758754   1.000000
   46       -4.707185   1.000000
   47       -4.629359   1.000000
   48       -4.591846   1.000000
   49       -4.567710   1.000000
   50       -4.510469   1.000000
   51       -4.418828   1.000000
   52       -4.395458   1.000000
   53       -4.288252   1.000000
   54       -4.170583   1.000000
   55       -4.147038   1.000000
   56       -4.009369   1.000000
   57       -3.997433   1.000000
   58       -3.897590   1.000000
   59       -3.878218   1.000000
   60       -3.786534   1.000000
   61       -3.773317   1.000000
   62       -3.652766   1.000000
   63       -3.573584   1.000000
   64       -3.376151   1.000000
   65       -3.359160   1.000000
   66       -3.273816   1.000000
   67       -3.257090   1.000000
   68       -3.188625   1.000000
   69       -3.134876   1.000000
   70       -3.111663   1.000000
   71       -3.046859   1.000000
   72       -3.016398   1.000000
   73       -2.870391   1.000000
   74       -2.866815   1.000000
   75       -2.724280   1.000000
   76       -2.200234   1.000000
   77       -2.063420   1.000000
   78       -1.998166   1.000000
   79       -1.950558   1.000000
   80       -1.781934   1.000000
   81       -1.762158   1.000000
   82       -1.586284   1.000000
   83       -1.480460   1.000000
   84       -1.458004   1.000000
   85       -1.242664   1.000000
   86       -0.956955   1.000000
   87       -0.840903   1.000000
   88       -0.838188   1.000000
   89       -0.763076   1.000000
   90       -0.337998   1.000000
   91       -0.101829   1.000000
   92       -0.017339   1.000084
   93        0.120432   1.021195
   94        0.204507   0.990036
   95        0.229664   0.895508
   96        0.250724   0.768579
   97        0.359677   0.023348
   98        0.534433  -0.001162
   99        0.608185  -0.000023
  100        0.695847  -0.000000
  101        0.826054  -0.000000
  102        0.851570  -0.000000
  103        0.897542  -0.000000
  104        1.109501  -0.000000
  105        1.157880  -0.000000
  106        1.167532  -0.000000
  107        1.203820  -0.000000
  108        1.382323  -0.000000
  109        1.498033  -0.000000
  110        1.549007  -0.000000
  111        1.610615  -0.000000
  112        1.626761  -0.000000
  113        1.652756  -0.000000
  114        1.724218  -0.000000
  115        1.849554  -0.000000
  116        1.857147  -0.000000
  117        1.902849  -0.000000
  118        1.958146  -0.000000
  119        2.011312  -0.000000
  120        2.124387  -0.000000
  121        2.143171  -0.000000
  122        2.179859  -0.000000
  123        2.212367  -0.000000
  124        2.255916  -0.000000
  125        2.315771  -0.000000
  126        2.416632  -0.000000
  127        2.522278  -0.000000
  128        2.655189  -0.000000

  0.1111111E+00  0.9090909E-01  0.4822234E-15  0.6734007E-02
    1      -13.713852   1.000000
    2      -12.486714   1.000000
    3      -12.450497   1.000000
    4      -11.655487   1.000000
    5      -11.466926   1.000000
    6      -11.206219   1.000000
    7      -11.104586   1.000000
    8      -11.050729   1.000000
    9      -10.893112   1.000000
   10      -10.524728   1.000000
   11      -10.428982   1.000000
   12      -10.332175   1.000000
   13      -10.063382   1.000000
   14      -10.044423   1.000000
   15       -9.651504   1.000000
   16       -9.591939   1.000000
   17       -9.063213   1.000000
   18       -9.004051   1.000000
   19       -8.990495   1.000000
   20       -8.514981   1.000000
   21       -8.511076   1.000000
   22       -8.239541   1.000000
   23       -8.192315   1.000000
   24       -7.768410   1.000000
   25       -7.736019   1.000000
   26       -7.688350   1.000000
   27       -7.585653   1.000000
   28       -7.381022   1.000000
   29       -6.901435   1.000000
   30       -6.496806   1.000000
   31       -6.262933   1.000000
   32       -6.210810   1.000000
   33       -6.039868   1.000000
   34       -5.941245   1.000000
   35       -5.883909   1.000000
   36       -5.757014   1.000000
   37       -5.514692   1.000000
   38       -5.359139   1.000000
   39       -5.234689   1.000000
   40       -5.204287   1.000000
   41       -5.078247   1.000000
   42       -5.077383   1.000000
   43       -4.992888   1.000000
   44       -4.876734   1.000000
   45       -4.809957   1.000000
   46       -4.790896   1.000000
   47       -4.638092   1.000000
   48       -4.519120   1.000000
   49       -4.512044   1.000000
   50       -4.458105   1.000000
   51       -4.411104   1.000000
   52       -4.301549   1.000000
   53       -4.263659   1.000000
   54       -4.213593   1.000000
   55       -4.108297   1.000000
   56       -4.059286   1.000000
   57       -4.032183   1.000000
   58       -3.935700   1.000000
   59       -3.867709   1.000000
   60       -3.811201   1.000000
   61       -3.750503   1.000000
   62       -3.611085   1.000000
   63       -3.562197   1.000000
   64       -3.418110   1.000000
   65       -3.361603   1.000000
   66       -3.316929   1.000000
   67       -3.312218   1.000000
   68       -3.185017   1.000000
   69       -3.109750   1.000000
   70       -3.059278   1.000000
   71       -3.028868   1.000000
   72       -2.984329   1.000000
   73       -2.920620   1.000000
   74       -2.847831   1.000000
   75       -2.744239   1.000000
   76       -2.220562   1.000000
   77       -2.073878   1.000000
   78       -2.040474   1.000000
   79       -1.979043   1.000000
   80       -1.826522   1.000000
   81       -1.800599   1.000000
   82       -1.510474   1.000000
   83       -1.488908   1.000000
   84       -1.411385   1.000000
   85       -1.254742   1.000000
   86       -0.949066   1.000000
   87       -0.796555   1.000000
   88       -0.793387   1.000000
   89       -0.646183   1.000000
   90       -0.428189   1.000000
   91       -0.100785   1.000000
   92       -0.051127   1.000011
   93        0.056513   1.002924
   94        0.162272   1.035457
   95        0.181390   1.028063
   96        0.373464  -0.009557
   97        0.387446  -0.027918
   98        0.471601  -0.011856
   99        0.574917  -0.000158
  100        0.669592  -0.000000
  101        0.800964  -0.000000
  102        0.905030  -0.000000
  103        0.968541  -0.000000
  104        1.034065  -0.000000
  105        1.127217  -0.000000
  106        1.180914  -0.000000
  107        1.348373  -0.000000
  108        1.460703  -0.000000
  109        1.483701  -0.000000
  110        1.528816  -0.000000
  111        1.637284  -0.000000
  112        1.648551  -0.000000
  113        1.700899  -0.000000
  114        1.773996  -0.000000
  115        1.833603  -0.000000
  116        1.847319  -0.000000
  117        1.867129  -0.000000
  118        1.908215  -0.000000
  119        2.048195  -0.000000
  120        2.086252  -0.000000
  121        2.156301  -0.000000
  122        2.169265  -0.000000