 running on   48 total cores
 distrk:  each k-point on   48 cores,    1 groups
 distr:  one band on    6 cores,    8 groups
 using from now: INCAR     
 vasp.5.4.4.18Apr17-6-g9f103f2a35 (build Dec  7 2020 12:43:57) complex           
 POSCAR found type information on POSCAR  Mo V  B  H 
 POSCAR found :  4 types and      52 ions
 scaLAPACK will be used

 ----------------------------------------------------------------------------- 
|                                                                             |
|  ADVICE TO THIS USER RUNNING 'VASP/VAMP'   (HEAR YOUR MASTER'S VOICE ...):  |
|                                                                             |
|      You enforced a specific xc-type in the INCAR file,                     |
|      a different type was found on the POTCAR file                          |
|          I HOPE YOU KNOW, WHAT YOU ARE  DOING                               |
|                                                                             |
 ----------------------------------------------------------------------------- 

 LDA part: xc-table for Pade appr. of Perdew
 POSCAR, INCAR and KPOINTS ok, starting setup
 resort distribution
 resort distribution
 resort distribution
 resort distribution
 resort distribution
 resort distribution
 resort distribution
 resort distribution
 resort distribution
 resort distribution
 resort distribution
 resort distribution
 resort distribution
 resort distribution
 resort distribution
 resort distribution
 resort distribution
 resort distribution
 resort distribution
 resort distribution
 resort distribution
 resort distribution
 resort distribution
 resort distribution
 resort distribution
 resort distribution
 resort distribution
 resort distribution
 resort distribution
 resort distribution
 resort distribution
 resort distribution
 resort distribution
 resort distribution
 resort distribution
 resort distribution
 resort distribution
 resort distribution
 resort distribution
 resort distribution
 resort distribution
 resort distribution
 resort distribution
 resort distribution
 resort distribution
 resort distribution
 resort distribution
 resort distribution
 FFT: planning ...
 WAVECAR not read
 augmentation electrons   192.00995879716561     
 soft         electrons   0.0000000000000000     
 augmentation electrons   192.00995879716561     
 soft         electrons   0.0000000000000000     
 augmentation electrons   192.00995879716561     
 soft         electrons   0.0000000000000000     
 augmentation electrons   192.00995879716561     
 soft         electrons   0.0000000000000000     
 augmentation electrons   192.00995879716561     
 soft         electrons   0.0000000000000000     
 augmentation electrons   192.00995879716561     
 soft         electrons   0.0000000000000000     
 augmentation electrons   192.00995879716561     
 soft         electrons   0.0000000000000000     
 augmentation electrons   192.00995879716561     
 soft         electrons   0.0000000000000000     
 augmentation electrons   192.00995879716561     
 soft         electrons   0.0000000000000000     
 augmentation electrons   192.00995879716561     
 soft         electrons   0.0000000000000000     
 augmentation electrons   192.00995879716561     
 soft         electrons   0.0000000000000000     
 augmentation electrons   192.00995879716561     
 soft         electrons   0.0000000000000000     
 augmentation electrons   192.00995879716561     
 soft         electrons   0.0000000000000000     
 augmentation electrons   192.00995879716561     
 soft         electrons   0.0000000000000000     
 augmentation electrons   192.00995879716561     
 soft         electrons   0.0000000000000000     
 augmentation electrons   192.00995879716561     
 soft         electrons   0.0000000000000000     
 augmentation electrons   192.00995879716561     
 soft         electrons   0.0000000000000000     
 augmentation electrons   192.00995879716561     
 soft         electrons   0.0000000000000000     
 augmentation electrons   192.00995879716561     
 soft         electrons   0.0000000000000000     
 augmentation electrons   192.00995879716561     
 soft         electrons   0.0000000000000000     
 augmentation electrons   192.00995879716561     
 soft         electrons   0.0000000000000000     
 augmentation electrons   192.00995879716561     
 soft         electrons   0.0000000000000000     
 augmentation electrons   192.00995879716561     
 soft         electrons   0.0000000000000000     
 augmentation electrons   192.00995879716561     
 soft         electrons   0.0000000000000000     
 augmentation electrons   192.00995879716561     
 soft         electrons   0.0000000000000000     
 augmentation electrons   192.00995879716561     
 soft         electrons   0.0000000000000000     
 augmentation electrons   192.00995879716561     
 soft         electrons   0.0000000000000000     
 augmentation electrons   192.00995879716561     
 soft         electrons   0.0000000000000000     
 augmentation electrons   192.00995879716561     
 soft         electrons   0.0000000000000000     
 augmentation electrons   192.00995879716561     
 soft         electrons   0.0000000000000000     
 augmentation electrons   192.00995879716561     
 soft         electrons   0.0000000000000000     
 augmentation electrons   192.00995879716561     
 soft         electrons   0.0000000000000000     
 augmentation electrons   192.00995879716561     
 soft         electrons   0.0000000000000000     
 augmentation electrons   192.00995879716561     
 soft         electrons   0.0000000000000000     
 augmentation electrons   192.00995879716561     
 soft         electrons   0.0000000000000000     
 augmentation electrons   192.00995879716561     
 soft         electrons   0.0000000000000000     
 augmentation electrons   192.00995879716561     
 soft         electrons   0.0000000000000000     
 augmentation electrons   192.00995879716561     
 soft         electrons   0.0000000000000000     
 augmentation electrons   192.00995879716561     
 soft         electrons   0.0000000000000000     
 augmentation electrons   192.00995879716561     
 soft         electrons   0.0000000000000000     
 augmentation electrons   192.00995879716561     
 soft         electrons   0.0000000000000000     
 augmentation electrons   192.00995879716561     
 soft         electrons   0.0000000000000000     
 augmentation electrons   192.00995879716561     
 soft         electrons   0.0000000000000000     
 augmentation electrons   192.00995879716561     
 soft         electrons   0.0000000000000000     
 augmentation electrons   192.00995879716561     
 soft         electrons   0.0000000000000000     
 augmentation electrons   192.00995879716561     
 soft         electrons   0.0000000000000000     
 augmentation electrons   192.00995879716561     
 soft         electrons   0.0000000000000000     
 augmentation electrons   192.00995879716561     
 soft         electrons   0.0000000000000000     
 total        electrons   192.00995879716561     
 total        electrons   192.00995879716561     
 total        electrons   192.00995879716561     
 total        electrons   192.00995879716561     
 total        electrons   192.00995879716561     
 total        electrons   192.00995879716561     
 total        electrons   192.00995879716561     
 total        electrons   192.00995879716561     
 total        electrons   192.00995879716561     
 total        electrons   192.00995879716561     
 total        electrons   192.00995879716561     
 total        electrons   192.00995879716561     
 total        electrons   192.00995879716561     
 total        electrons   192.00995879716561     
 total        electrons   192.00995879716561     
 total        electrons   192.00995879716561     
 total        electrons   192.00995879716561     
 total        electrons   192.00995879716561     
 total        electrons   192.00995879716561     
 total        electrons   192.00995879716561     
 total        electrons   192.00995879716561     
 total        electrons   192.00995879716561     
 total        electrons   192.00995879716561     
 total        electrons   192.00995879716561     
 total        electrons   192.00995879716561     
 total        electrons   192.00995879716561     
 total        electrons   192.00995879716561     
 total        electrons   192.00995879716561     
 total        electrons   192.00995879716561     
 total        electrons   192.00995879716561     
 total        electrons   192.00995879716561     
 total        electrons   192.00995879716561     
 total        electrons   192.00995879716561     
 total        electrons   192.00995879716561     
 total        electrons   192.00995879716561     
 total        electrons   192.00995879716561     
 total        electrons   192.00995879716561     
 total        electrons   192.00995879716561     
 total        electrons   192.00995879716561     
 total        electrons   192.00995879716561     
 total        electrons   192.00995879716561     
 total        electrons   192.00995879716561     
 total        electrons   192.00995879716561     
 total        electrons   192.00995879716561     
 total        electrons   192.00995879716561     
 total        electrons   192.00995879716561     
 total        electrons   192.00995879716561     
 total        electrons   192.00995879716561     
 augmentation electrons   591.49649347155173     
 soft         electrons   0.0000000000000000     
 augmentation electrons   591.49649347155173     
 soft         electrons   0.0000000000000000     
 augmentation electrons   591.49649347155173     
 soft         electrons   0.0000000000000000     
 augmentation electrons   591.49649347155173     
 soft         electrons   0.0000000000000000     
 augmentation electrons   591.49649347155173     
 soft         electrons   0.0000000000000000     
 augmentation electrons   591.49649347155173     
 soft         electrons   0.0000000000000000     
 augmentation electrons   591.49649347155173     
 soft         electrons   0.0000000000000000     
 augmentation electrons   591.49649347155173     
 soft         electrons   0.0000000000000000     
 augmentation electrons   591.49649347155173     
 soft         electrons   0.0000000000000000     
 augmentation electrons   591.49649347155173     
 soft         electrons   0.0000000000000000     
 augmentation electrons   591.49649347155173     
 soft         electrons   0.0000000000000000     
 augmentation electrons   591.49649347155173     
 soft         electrons   0.0000000000000000     
 augmentation electrons   591.49649347155173     
 soft         electrons   0.0000000000000000     
 augmentation electrons   591.49649347155173     
 soft         electrons   0.0000000000000000     
 augmentation electrons   591.49649347155173     
 soft         electrons   0.0000000000000000     
 augmentation electrons   591.49649347155173     
 soft         electrons   0.0000000000000000     
 augmentation electrons   591.49649347155173     
 soft         electrons   0.0000000000000000     
 augmentation electrons   591.49649347155173     
 soft         electrons   0.0000000000000000     
 augmentation electrons   591.49649347155173     
 soft         electrons   0.0000000000000000     
 augmentation electrons   591.49649347155173     
 soft         electrons   0.0000000000000000     
 augmentation electrons   591.49649347155173     
 soft         electrons   0.0000000000000000     
 augmentation electrons   591.49649347155173     
 soft         electrons   0.0000000000000000     
 augmentation electrons   591.49649347155173     
 soft         electrons   0.0000000000000000     
 augmentation electrons   591.49649347155173     
 soft         electrons   0.0000000000000000     
 augmentation electrons   591.49649347155173     
 soft         electrons   0.0000000000000000     
 augmentation electrons   591.49649347155173     
 soft         electrons   0.0000000000000000     
 augmentation electrons   591.49649347155173     
 soft         electrons   0.0000000000000000     
 augmentation electrons   591.49649347155173     
 soft         electrons   0.0000000000000000     
 augmentation electrons   591.49649347155173     
 soft         electrons   0.0000000000000000     
 augmentation electrons   591.49649347155173     
 soft         electrons   0.0000000000000000     
 augmentation electrons   591.49649347155173     
 soft         electrons   0.0000000000000000     
 augmentation electrons   591.49649347155173     
 soft         electrons   0.0000000000000000     
 augmentation electrons   591.49649347155173     
 soft         electrons   0.0000000000000000     
 augmentation electrons   591.49649347155173     
 soft         electrons   0.0000000000000000     
 augmentation electrons   591.49649347155173     
 soft         electrons   0.0000000000000000     
 augmentation electrons   591.49649347155173     
 soft         electrons   0.0000000000000000     
 augmentation electrons   591.49649347155173     
 soft         electrons   0.0000000000000000     
 augmentation electrons   591.49649347155173     
 soft         electrons   0.0000000000000000     
 augmentation electrons   591.49649347155173     
 soft         electrons   0.0000000000000000     
 augmentation electrons   591.49649347155173     
 soft         electrons   0.0000000000000000     
 augmentation electrons   591.49649347155173     
 soft         electrons   0.0000000000000000     
 augmentation electrons   591.49649347155173     
 soft         electrons   0.0000000000000000     
 augmentation electrons   591.49649347155173     
 soft         electrons   0.0000000000000000     
 augmentation electrons   591.49649347155173     
 soft         electrons   0.0000000000000000     
 augmentation electrons   591.49649347155173     
 soft         electrons   0.0000000000000000     
 augmentation electrons   591.49649347155173     
 soft         electrons   0.0000000000000000     
 augmentation electrons   591.49649347155173     
 soft         electrons   0.0000000000000000     
 augmentation electrons   591.49649347155173     
 soft         electrons   0.0000000000000000     
 total        electrons   591.49649347155173     
 total        electrons   591.49649347155173     
 total        electrons   591.49649347155173     
 total        electrons   591.49649347155173     
 total        electrons   591.49649347155173     
 total        electrons   591.49649347155173     
 total        electrons   591.49649347155173     
 total        electrons   591.49649347155173     
 total        electrons   591.49649347155173     
 total        electrons   591.49649347155173     
 total        electrons   591.49649347155173     
 total        electrons   591.49649347155173     
 total        electrons   591.49649347155173     
 total        electrons   591.49649347155173     
 total        electrons   591.49649347155173     
 total        electrons   591.49649347155173     
 total        electrons   591.49649347155173     
 total        electrons   591.49649347155173     
 total        electrons   591.49649347155173     
 total        electrons   591.49649347155173     
 total        electrons   591.49649347155173     
 total        electrons   591.49649347155173     
 total        electrons   591.49649347155173     
 total        electrons   591.49649347155173     
 total        electrons   591.49649347155173     
 total        electrons   591.49649347155173     
 total        electrons   591.49649347155173     
 total        electrons   591.49649347155173     
 total        electrons   591.49649347155173     
 total        electrons   591.49649347155173     
 total        electrons   591.49649347155173     
 total        electrons   591.49649347155173     
 total        electrons   591.49649347155173     
 total        electrons   591.49649347155173     
 total        electrons   591.49649347155173     
 total        electrons   591.49649347155173     
 total        electrons   591.49649347155173     
 total        electrons   591.49649347155173     
 total        electrons   591.49649347155173     
 total        electrons   591.49649347155173     
 total        electrons   591.49649347155173     
 total        electrons   591.49649347155173     
 total        electrons   591.49649347155173     
 total        electrons   591.49649347155173     
 total        electrons   591.49649347155173     
 total        electrons   591.49649347155173     
 total        electrons   591.49649347155173     
 total        electrons   591.49649347155173     
 entering main loop
       N       E                     dE             d eps       ncg     rms          rms(c)
DAV:   1     0.159934219126E+04    0.15993E+04   -0.69327E+04 38168   0.121E+03
DAV:   2    -0.177105511203E+03   -0.17764E+04   -0.16632E+04 45200   0.292E+02
DAV:   3    -0.438774314822E+03   -0.26167E+03   -0.24856E+03 53528   0.131E+02
DAV:   4    -0.458935995343E+03   -0.20162E+02   -0.19226E+02 62152   0.404E+01
DAV:   5    -0.460049527071E+03   -0.11135E+01   -0.10816E+01 64584   0.853E+00    0.116E+02
RMM:   6    -0.427141722605E+03    0.32908E+02   -0.77547E+02 59250   0.823E+01    0.589E+01
RMM:   7    -0.470078254625E+03   -0.42937E+02   -0.22681E+02 50807   0.430E+01    0.445E+01
RMM:   8    -0.405601848635E+03    0.64476E+02   -0.62810E+01 47118   0.257E+01    0.266E+01
RMM:   9    -0.399621646582E+03    0.59802E+01   -0.25335E+01 53930   0.152E+01    0.234E+01
RMM:  10    -0.389098361112E+03    0.10523E+02   -0.10224E+01 47751   0.117E+01    0.145E+01
RMM:  11    -0.389707208296E+03   -0.60885E+00   -0.32991E+00 59553   0.286E+00    0.131E+01
RMM:  12    -0.389484130147E+03    0.22308E+00   -0.45955E-01 46664   0.247E+00    0.123E+01
RMM:  13    -0.388919683490E+03    0.56445E+00   -0.16427E+00 47227   0.455E+00    0.853E+00
RMM:  14    -0.389034900766E+03   -0.11522E+00   -0.11488E+00 60381   0.227E+00    0.559E+00
RMM:  15    -0.388625063458E+03    0.40984E+00   -0.87471E-01 52006   0.300E+00    0.290E+00
RMM:  16    -0.388614591731E+03    0.10472E-01   -0.66257E-01 58632   0.158E+00    0.255E+00
RMM:  17    -0.388560697980E+03    0.53894E-01   -0.20182E-01 56214   0.112E+00    0.133E+00
RMM:  18    -0.388551582708E+03    0.91153E-02   -0.55272E-02 57910   0.447E-01    0.791E-01
RMM:  19    -0.388545210278E+03    0.63724E-02   -0.22438E-02 51955   0.442E-01    0.657E-01
RMM:  20    -0.388539106828E+03    0.61035E-02   -0.13308E-02 54436   0.291E-01    0.406E-01
RMM:  21    -0.388537864433E+03    0.12424E-02   -0.50204E-03 55131   0.177E-01    0.224E-01
RMM:  22    -0.388537432501E+03    0.43193E-03   -0.49215E-03 58119   0.148E-01    0.110E-01
RMM:  23    -0.388537285481E+03    0.14702E-03   -0.16172E-03 50953   0.873E-02    0.899E-02
RMM:  24    -0.388537903069E+03   -0.61759E-03   -0.10669E-03 52882   0.922E-02    0.580E-02
RMM:  25    -0.388539168841E+03   -0.12658E-02   -0.67361E-04 51850   0.671E-02    0.663E-02
RMM:  26    -0.388539764745E+03   -0.59590E-03   -0.20994E-04 53664   0.356E-02    0.452E-02
RMM:  27    -0.388539999038E+03   -0.23429E-03   -0.21420E-04 52844   0.364E-02    0.136E-02
RMM:  28    -0.388540299340E+03   -0.30030E-03   -0.13388E-04 47310   0.362E-02    0.463E-02
RMM:  29    -0.388540313057E+03   -0.13717E-04   -0.42683E-05 44218   0.269E-02    0.712E-03
RMM:  30    -0.388540368736E+03   -0.55679E-04   -0.26698E-05 43288   0.727E-03    0.105E-02
RMM:  31    -0.388540434623E+03   -0.65887E-04   -0.15597E-05 39464   0.126E-02    0.142E-02
RMM:  32    -0.388540484935E+03   -0.50313E-04   -0.12283E-05 39219   0.145E-02    0.111E-02
RMM:  33    -0.388540554240E+03   -0.69304E-04   -0.78200E-06 37225   0.431E-03    0.728E-03
RMM:  34    -0.388540606397E+03   -0.52158E-04   -0.64544E-06 36150   0.655E-03    0.249E-03
RMM:  35    -0.388540624478E+03   -0.18081E-04   -0.27515E-06 34606   0.256E-03    0.274E-03
RMM:  36    -0.388540634613E+03   -0.10134E-04   -0.64295E-07 27132   0.259E-03    0.277E-03
RMM:  37    -0.388540643108E+03   -0.84950E-05   -0.70977E-07 28681   0.219E-03    0.712E-04
RMM:  38    -0.388540648194E+03   -0.50867E-05   -0.54758E-07 24597   0.149E-03    0.131E-03
RMM:  39    -0.388540649931E+03   -0.17366E-05   -0.31595E-07 22926   0.188E-03    0.355E-04
RMM:  40    -0.388540650441E+03   -0.51014E-06   -0.16016E-07 17986   0.101E-03
   1 F= -.38854065E+03 E0= -.38854170E+03  d E =0.314394E-02
 augmentation electrons   21.053573141456983     
 soft         electrons   171.00083946653487     
 augmentation electrons   21.053573141456983     
 soft         electrons   171.00083946653487     
 augmentation electrons   21.053573141456983     
 soft         electrons   171.00083946653487     
 augmentation electrons   21.053573141456983     
 soft         electrons   171.00083946653487     
 augmentation electrons   21.053573141456983     
 soft         electrons   171.00083946653487     
 augmentation electrons   21.053573141456983     
 soft         electrons   171.00083946653487     
 augmentation electrons   21.053573141456983     
 soft         electrons   171.00083946653487     
 augmentation electrons   21.053573141456983     
 soft         electrons   171.00083946653487     
 augmentation electrons   21.053573141456983     
 soft         electrons   171.00083946653487     
 augmentation electrons   21.053573141456983     
 soft         electrons   171.00083946653487     
 augmentation electrons   21.053573141456983     
 soft         electrons   171.00083946653487     
 augmentation electrons   21.053573141456983     
 soft         electrons   171.00083946653487     
 augmentation electrons   21.053573141456983     
 soft         electrons   171.00083946653487     
 augmentation electrons   21.053573141456983     
 soft         electrons   171.00083946653487     
 augmentation electrons   21.053573141456983     
 soft         electrons   171.00083946653487     
 augmentation electrons   21.053573141456983     
 soft         electrons   171.00083946653487     
 augmentation electrons   21.053573141456983     
 soft         electrons   171.00083946653487     
 augmentation electrons   21.053573141456983     
 soft         electrons   171.00083946653487     
 augmentation electrons   21.053573141456983     
 soft         electrons   171.00083946653487     
 augmentation electrons   21.053573141456983     
 soft         electrons   171.00083946653487     
 augmentation electrons   21.053573141456983     
 soft         electrons   171.00083946653487     
 augmentation electrons   21.053573141456983     
 augmentation electrons   21.053573141456983     
 soft         electrons   171.00083946653487     
 augmentation electrons   21.053573141456983     
 soft         electrons   171.00083946653487     
 augmentation electrons   21.053573141456983     
 soft         electrons   171.00083946653487     
 augmentation electrons   21.053573141456983     
 soft         electrons   171.00083946653487     
 augmentation electrons   21.053573141456983     
 soft         electrons   171.00083946653487     
 augmentation electrons   21.053573141456983     
 soft         electrons   171.00083946653487     
 augmentation electrons   21.053573141456983     
 soft         electrons   171.00083946653487     
 augmentation electrons   21.053573141456983     
 soft         electrons   171.00083946653487     
 augmentation electrons   21.053573141456983     
 soft         electrons   171.00083946653487     
 augmentation electrons   21.053573141456983     
 soft         electrons   171.00083946653487     
 augmentation electrons   21.053573141456983     
 soft         electrons   171.00083946653487     
 augmentation electrons   21.053573141456983     
 soft         electrons   171.00083946653487     
 augmentation electrons   21.053573141456983     
 soft         electrons   171.00083946653487     
 augmentation electrons   21.053573141456983     
 soft         electrons   171.00083946653487     
 augmentation electrons   21.053573141456983     
 soft         electrons   171.00083946653487     
 augmentation electrons   21.053573141456983     
 soft         electrons   171.00083946653487     
 augmentation electrons   21.053573141456983     
 soft         electrons   171.00083946653487     
 augmentation electrons   21.053573141456983     
 soft         electrons   171.00083946653487     
 augmentation electrons   21.053573141456983     
 soft         electrons   171.00083946653487     
 augmentation electrons   21.053573141456983     
 soft         electrons   171.00083946653487     
 augmentation electrons   21.053573141456983     
 soft         electrons   171.00083946653487     
 augmentation electrons   21.053573141456983     
 soft         electrons   171.00083946653487     
 augmentation electrons   21.053573141456983     
 soft         electrons   171.00083946653487     
 augmentation electrons   21.053573141456983     
 soft         electrons   171.00083946653487     
 augmentation electrons   21.053573141456983     
 soft         electrons   171.00083946653487     
 augmentation electrons   21.053573141456983     
 soft         electrons   171.00083946653487     
 soft         electrons   171.00083946653487     
 total        electrons   192.05441260799185     
 total        electrons   192.05441260799185     
 total        electrons   192.05441260799185     
 total        electrons   192.05441260799185     
 total        electrons   192.05441260799185     
 total        electrons   192.05441260799185     
 total        electrons   192.05441260799185     
 total        electrons   192.05441260799185     
 total        electrons   192.05441260799185     
 total        electrons   192.05441260799185     
 total        electrons   192.05441260799185     
 total        electrons   192.05441260799185     
 total        electrons   192.05441260799185     
 total        electrons   192.05441260799185     
 total        electrons   192.05441260799185     
 total        electrons   192.05441260799185     
 total        electrons   192.05441260799185     
 total        electrons   192.05441260799185     
 total        electrons   192.05441260799185     
 total        electrons   192.05441260799185     
 total        electrons   192.05441260799185     
 total        electrons   192.05441260799185     
 total        electrons   192.05441260799185     
 total        electrons   192.05441260799185     
 total        electrons   192.05441260799185     
 total        electrons   192.05441260799185     
 total        electrons   192.05441260799185     
 total        electrons   192.05441260799185     
 total        electrons   192.05441260799185     
 total        electrons   192.05441260799185     
 total        electrons   192.05441260799185     
 total        electrons   192.05441260799185     
 total        electrons   192.05441260799185     
 total        electrons   192.05441260799185     
 total        electrons   192.05441260799185     
 total        electrons   192.05441260799185     
 total        electrons   192.05441260799185     
 total        electrons   192.05441260799185     
 total        electrons   192.05441260799185     
 total        electrons   192.05441260799185     
 total        electrons   192.05441260799185     
 total        electrons   192.05441260799185     
 total        electrons   192.05441260799185     
 total        electrons   192.05441260799185     
 total        electrons   192.05441260799185     
 total        electrons   192.05441260799185     
 total        electrons   192.05441260799185     
 total        electrons   192.05441260799185     
Note: The following floating-point exceptions are signalling: IEEE_OVERFLOW_FLAG
Note: The following floating-point exceptions are signalling: IEEE_OVERFLOW_FLAG
Note: The following floating-point exceptions are signalling: IEEE_OVERFLOW_FLAG
Note: The following floating-point exceptions are signalling: IEEE_OVERFLOW_FLAG
Note: The following floating-point exceptions are signalling: IEEE_OVERFLOW_FLAG
Note: The following floating-point exceptions are signalling: IEEE_OVERFLOW_FLAG
Note: The following floating-point exceptions are signalling: IEEE_OVERFLOW_FLAG
Note: The following floating-point exceptions are signalling: IEEE_OVERFLOW_FLAG
Note: The following floating-point exceptions are signalling: IEEE_OVERFLOW_FLAG
Note: The following floating-point exceptions are signalling: IEEE_OVERFLOW_FLAG
Note: The following floating-point exceptions are signalling: IEEE_OVERFLOW_FLAG
Note: The following floating-point exceptions are signalling: IEEE_OVERFLOW_FLAG
Note: The following floating-point exceptions are signalling: IEEE_OVERFLOW_FLAG
Note: The following floating-point exceptions are signalling: IEEE_OVERFLOW_FLAG
Note: The following floating-point exceptions are signalling: IEEE_OVERFLOW_FLAG
Note: The following floating-point exceptions are signalling: IEEE_OVERFLOW_FLAG
Note: The following floating-point exceptions are signalling: IEEE_OVERFLOW_FLAG
Note: The following floating-point exceptions are signalling: IEEE_OVERFLOW_FLAG
Note: The following floating-point exceptions are signalling: IEEE_OVERFLOW_FLAG
Note: The following floating-point exceptions are signalling: IEEE_OVERFLOW_FLAG
Note: The following floating-point exceptions are signalling: IEEE_OVERFLOW_FLAG
Note: The following floating-point exceptions are signalling: IEEE_OVERFLOW_FLAG
Note: The following floating-point exceptions are signalling: IEEE_OVERFLOW_FLAG
Note: The following floating-point exceptions are signalling: IEEE_OVERFLOW_FLAG
Note: The following floating-point exceptions are signalling: IEEE_OVERFLOW_FLAG
Note: The following floating-point exceptions are signalling: IEEE_OVERFLOW_FLAG
Note: The following floating-point exceptions are signalling: IEEE_OVERFLOW_FLAG
Note: The following floating-point exceptions are signalling: IEEE_OVERFLOW_FLAG
Note: The following floating-point exceptions are signalling: IEEE_OVERFLOW_FLAG
Note: The following floating-point exceptions are signalling: IEEE_OVERFLOW_FLAG
Note: The following floating-point exceptions are signalling: IEEE_OVERFLOW_FLAG
Note: The following floating-point exceptions are signalling: IEEE_OVERFLOW_FLAG
Note: The following floating-point exceptions are signalling: IEEE_OVERFLOW_FLAG
Note: The following floating-point exceptions are signalling: IEEE_OVERFLOW_FLAG
Note: The following floating-point exceptions are signalling: IEEE_OVERFLOW_FLAG
Note: The following floating-point exceptions are signalling: IEEE_OVERFLOW_FLAG
Note: The following floating-point exceptions are signalling: IEEE_OVERFLOW_FLAG
Note: The following floating-point exceptions are signalling: IEEE_OVERFLOW_FLAG
Note: The following floating-point exceptions are signalling: IEEE_OVERFLOW_FLAG
Note: The following floating-point exceptions are signalling: IEEE_OVERFLOW_FLAG
Note: The following floating-point exceptions are signalling: IEEE_OVERFLOW_FLAG
Note: The following floating-point exceptions are signalling: IEEE_OVERFLOW_FLAG
Note: The following floating-point exceptions are signalling: IEEE_OVERFLOW_FLAG
Note: The following floating-point exceptions are signalling: IEEE_OVERFLOW_FLAG
Note: The following floating-point exceptions are signalling: IEEE_OVERFLOW_FLAG
Note: The following floating-point exceptions are signalling: IEEE_OVERFLOW_FLAG
Note: The following floating-point exceptions are signalling: IEEE_OVERFLOW_FLAG
Note: The following floating-point exceptions are signalling: IEEE_OVERFLOW_FLAG
