   75   75   85    1
  0.2082215E+02  0.1053953E-08  0.6141200E-09  0.2412750E-08  0.5000000E-15
   1.0000000000000000E-004
  CAR 
 Name                                    
    285     23    184

  0.3742002E-15  0.3742002E-15  0.1262379E-14  0.2222222E-01
    1      -13.944629   1.000000
    2      -12.817791   1.000000
    3      -12.750801   1.000000
    4      -12.726257   1.000000
    5      -11.769117   1.000000
    6      -11.663689   1.000000
    7      -11.613754   1.000000
    8      -11.555721   1.000000
    9      -11.378153   1.000000
   10      -11.250956   1.000000
   11      -11.207258   1.000000
   12      -11.065642   1.000000
   13      -11.012122   1.000000
   14      -10.704962   1.000000
   15      -10.445404   1.000000
   16      -10.295267   1.000000
   17      -10.154076   1.000000
   18      -10.120288   1.000000
   19       -9.882944   1.000000
   20       -9.773379   1.000000
   21       -9.630649   1.000000
   22       -9.489892   1.000000
   23       -9.468824   1.000000
   24       -9.389295   1.000000
   25       -8.896348   1.000000
   26       -8.869620   1.000000
   27       -8.788955   1.000000
   28       -8.541751   1.000000
   29       -8.465851   1.000000
   30       -8.298431   1.000000
   31       -8.179837   1.000000
   32       -7.871180   1.000000
   33       -7.725192   1.000000
   34       -7.419914   1.000000
   35       -7.348953   1.000000
   36       -7.243850   1.000000
   37       -7.181944   1.000000
   38       -7.109412   1.000000
   39       -6.937469   1.000000
   40       -6.898024   1.000000
   41       -6.773526   1.000000
   42       -6.756977   1.000000
   43       -6.668843   1.000000
   44       -6.606764   1.000000
   45       -6.599553   1.000000
   46       -6.494342   1.000000
   47       -6.434269   1.000000
   48       -6.175131   1.000000
   49       -6.119230   1.000000
   50       -6.096610   1.000000
   51       -5.967161   1.000000
   52       -5.892215   1.000000
   53       -5.804933   1.000000
   54       -5.684438   1.000000
   55       -5.649546   1.000000
   56       -5.606716   1.000000
   57       -5.594937   1.000000
   58       -5.486466   1.000000
   59       -5.427253   1.000000
   60       -5.383354   1.000000
   61       -5.314974   1.000000
   62       -5.204795   1.000000
   63       -4.995555   1.000000
   64       -4.911273   1.000000
   65       -4.797987   1.000000
   66       -4.723791   1.000000
   67       -4.702693   1.000000
   68       -4.688593   1.000000
   69       -4.624261   1.000000
   70       -4.559087   1.000000
   71       -4.437504   1.000000
   72       -4.405997   1.000000
   73       -4.381919   1.000000
   74       -4.329219   1.000000
   75       -4.264415   1.000000
   76       -4.145262   1.000000
   77       -4.136339   1.000000
   78       -4.099747   1.000000
   79       -4.056925   1.000000
   80       -3.994313   1.000000
   81       -3.947988   1.000000
   82       -3.936291   1.000000
   83       -3.926398   1.000000
   84       -3.883269   1.000000
   85       -3.837336   1.000000
   86       -3.785257   1.000000
   87       -3.721566   1.000000
   88       -3.650872   1.000000
   89       -3.588636   1.000000
   90       -3.586768   1.000000
   91       -3.552781   1.000000
   92       -3.457294   1.000000
   93       -3.356256   1.000000
   94       -3.342747   1.000000
   95       -3.204625   1.000000
   96       -3.064552   1.000000
   97       -3.041350   1.000000
   98       -3.002942   1.000000
   99       -2.848471   1.000000
  100       -2.831396   1.000000
  101       -2.768299   1.000000
  102       -2.740558   1.000000
  103       -2.654786   1.000000
  104       -2.504334   1.000000
  105       -2.417478   1.000000
  106       -2.416140   1.000000
  107       -2.377554   1.000000
  108       -2.284076   1.000000
  109       -2.155698   1.000000
  110       -2.143896   1.000000
  111       -2.119907   1.000000
  112       -2.028748   1.000000
  113       -1.998484   1.000000
  114       -1.920631   1.000000
  115       -1.819808   1.000000
  116       -1.774264   1.000000
  117       -1.744510   1.000000
  118       -1.675445   1.000000
  119       -1.617259   1.000000
  120       -1.587287   1.000000
  121       -1.461361   1.000000
  122       -1.228658   1.000000
  123       -1.003296   1.000000
  124       -0.984769   1.000000
  125       -0.834661   1.000000
  126       -0.777758   1.000000
  127       -0.740331   1.000000
  128       -0.477563   1.000000
  129       -0.450863   1.000000
  130       -0.403274   1.000000
  131       -0.255946   1.000000
  132       -0.214055   1.000000
  133       -0.168867   1.000000
  134       -0.124670   1.000000
  135       -0.009856   1.000000
  136        0.121906   1.000002
  137        0.201761   1.000281
  138        0.212936   1.000492
  139        0.297105   1.012894
  140        0.312402   1.019058
  141        0.396458   1.001286
  142        0.419227   0.928834
  143        0.518345   0.208655
  144        0.579497  -0.023224
  145        0.584675  -0.028337
  146        0.614207  -0.033992
  147        0.663140  -0.013711
  148        0.711932  -0.002626
  149        0.739594  -0.000791
  150        0.816657  -0.000011
  151        0.946375  -0.000000
  152        1.018795  -0.000000
  153        1.059693  -0.000000
  154        1.118779  -0.000000
  155        1.172029  -0.000000
  156        1.222068  -0.000000
  157        1.287646  -0.000000
  158        1.315302  -0.000000
  159        1.320856  -0.000000
  160        1.357012  -0.000000
  161        1.402091  -0.000000
  162        1.427548  -0.000000
  163        1.500717  -0.000000
  164        1.523531  -0.000000
  165        1.569015  -0.000000
  166        1.657861  -0.000000
  167        1.684166  -0.000000
  168        1.695472  -0.000000
  169        1.722187  -0.000000
  170        1.733533  -0.000000
  171        1.741228  -0.000000
  172        1.776617  -0.000000
  173        1.778388  -0.000000
  174        1.802792  -0.000000
  175        1.844491  -0.000000
  176        1.896606  -0.000000
  177        1.935640  -0.000000
  178        2.004734  -0.000000
  179        2.017845  -0.000000
  180        2.045275  -0.000000
  181        2.108746  -0.000000
  182        2.189982  -0.000000
  183        2.222774  -0.000000
  184        2.259548  -0.000000

  0.2000000E+00  0.3742002E-15  0.1262379E-14  0.4444444E-01
    1      -13.896118   1.000000
    2      -13.190293   1.000000
    3      -12.683373   1.000000
    4      -12.304388   1.000000
    5      -12.022149   1.000000
    6      -11.758207   1.000000
    7      -11.605792   1.000000
    8      -11.311076   1.000000
    9      -11.250266   1.000000
   10      -11.196371   1.000000
   11      -11.157650   1.000000
   12      -11.097787   1.000000
   13      -10.934262   1.000000
   14      -10.769457   1.000000
   15      -10.579036   1.000000
   16      -10.562526   1.000000
   17      -10.501551   1.000000
   18       -9.872512   1.000000
   19       -9.823730   1.000000
   20       -9.741961   1.000000
   21       -9.515201   1.000000
   22       -9.488737   1.000000
   23       -9.456081   1.000000
   24       -9.418252   1.000000
   25       -9.099856   1.000000
   26       -8.929449   1.000000
   27       -8.521296   1.000000
   28       -8.392008   1.000000
   29       -8.256586   1.000000
   30       -8.199816   1.000000
   31       -8.156707   1.000000
   32       -8.104331   1.000000
   33       -7.628548   1.000000
   34       -7.525827   1.000000
   35       -7.455423   1.000000
   36       -7.381003   1.000000
   37       -7.238290   1.000000
   38       -7.168099   1.000000
   39       -7.113715   1.000000
   40       -6.871153   1.000000
   41       -6.843802   1.000000
   42       -6.756345   1.000000
   43       -6.713406   1.000000
   44       -6.635968   1.000000
   45       -6.547948   1.000000
   46       -6.452731   1.000000
   47       -6.222969   1.000000
   48       -6.200773   1.000000
   49       -6.097105   1.000000
   50       -6.073423   1.000000
   51       -5.915937   1.000000
   52       -5.838204   1.000000
   53       -5.794813   1.000000
   54       -5.682676   1.000000
   55       -5.632873   1.000000
   56       -5.523979   1.000000
   57       -5.514904   1.000000
   58       -5.487205   1.000000
   59       -5.407042   1.000000
   60       -5.327702   1.000000
   61       -5.293049   1.000000
   62       -5.246818   1.000000
   63       -5.147802   1.000000
   64       -4.959006   1.000000
   65       -4.799661   1.000000
   66       -4.773121   1.000000
   67       -4.748421   1.000000
   68       -4.679860   1.000000
   69       -4.618644   1.000000
   70       -4.574191   1.000000
   71       -4.430047   1.000000
   72       -4.356436   1.000000
   73       -4.329351   1.000000
   74       -4.264359   1.000000
   75       -4.233216   1.000000
   76       -4.186433   1.000000
   77       -4.130530   1.000000
   78       -4.120044   1.000000
   79       -4.102881   1.000000
   80       -3.966315   1.000000
   81       -3.955767   1.000000
   82       -3.942778   1.000000
   83       -3.919983   1.000000
   84       -3.901671   1.000000
   85       -3.830941   1.000000
   86       -3.758023   1.000000
   87       -3.636663   1.000000
   88       -3.618134   1.000000
   89       -3.604661   1.000000
   90       -3.553324   1.000000
   91       -3.512661   1.000000
   92       -3.487696   1.000000
   93       -3.474777   1.000000
   94       -3.426322   1.000000
   95       -3.180384   1.000000
   96       -3.152715   1.000000
   97       -3.101206   1.000000
   98       -3.027826   1.000000
   99       -2.940395   1.000000
  100       -2.830816   1.000000
  101       -2.769203   1.000000
  102       -2.754180   1.000000
  103       -2.696025   1.000000
  104       -2.509834   1.000000
  105       -2.432415   1.000000
  106       -2.304144   1.000000
  107       -2.267001   1.000000
  108       -2.229110   1.000000
  109       -2.205741   1.000000
  110       -2.141591   1.000000
  111       -2.022447   1.000000
  112       -1.986618   1.000000
  113       -1.939238   1.000000
  114       -1.839476   1.000000
  115       -1.781677   1.000000
  116       -1.760302   1.000000
  117       -1.754097   1.000000
  118       -1.698000   1.000000
  119       -1.604689   1.000000
  120       -1.469987   1.000000
  121       -1.377574   1.000000
  122       -1.213121   1.000000
  123       -1.122465   1.000000
  124       -0.998301   1.000000
  125       -0.890281   1.000000
  126       -0.869254   1.000000
  127       -0.810771   1.000000
  128       -0.566813   1.000000
  129       -0.539309   1.000000
  130       -0.458465   1.000000
  131       -0.424157   1.000000
  132       -0.295169   1.000000
  133       -0.270507   1.000000
  134       -0.202835   1.000000
  135       -0.042716   1.000000
  136        0.048238   1.000000
  137        0.131913   1.000005
  138        0.246288   1.002209
  139        0.342202   1.032119
  140        0.380337   1.026037
  141        0.471404   0.582781
  142        0.512371   0.250153
  143        0.535079   0.109541
  144        0.602461  -0.035433
  145        0.624458  -0.030538
  146        0.662619  -0.013906
  147        0.677359  -0.009044
  148        0.697509  -0.004564
  149        0.764897  -0.000226
  150        0.802276  -0.000027
  151        0.980666  -0.000000
  152        1.101514  -0.000000
  153        1.139505  -0.000000
  154        1.199112  -0.000000
  155        1.235942  -0.000000
  156        1.253413  -0.000000
  157        1.263519  -0.000000
  158        1.284473  -0.000000
  159        1.357225  -0.000000
  160        1.421492  -0.000000
  161        1.457414  -0.000000
  162        1.488838  -0.000000
  163        1.500121  -0.000000
  164        1.550266  -0.000000
  165        1.579751  -0.000000
  166        1.622236  -0.000000
  167        1.662834  -0.000000
  168        1.701677  -0.000000
  169        1.717384  -0.000000
  170        1.740011  -0.000000
  171        1.782322  -0.000000
  172        1.799394  -0.000000
  173        1.844470  -0.000000
  174        1.865523  -0.000000
  175        1.891971  -0.000000
  176        1.924724  -0.000000
  177        1.954575  -0.000000
  178        2.001634  -0.000000
  179        2.009172  -0.000000
  180        2.045870  -0.000000
  181        2.064749  -0.000000
  182        2.162574  -0.000000
  183        2.168424  -0.000000
  184        2.212797  -0.000000

  0.4000000E+00  0.3742002E-15  0.1262379E-14  0.4444444E-01
    1      -13.751699   1.000000
    2      -13.514538   1.000000
    3      -12.549535   1.000000
    4      -12.326890   1.000000
    5      -11.765532   1.000000
    6      -11.726963   1.000000
    7      -11.675293   1.000000
    8      -11.244175   1.000000
    9      -11.236676   1.000000
   10      -11.178662   1.000000
   11      -11.073714   1.000000
   12      -11.042428   1.000000
   13      -10.919450   1.000000
   14      -10.855101   1.000000
   15      -10.801810   1.000000
   16      -10.656648   1.000000
   17      -10.636061   1.000000
   18      -10.089461   1.000000
   19       -9.829359   1.000000
   20       -9.737759   1.000000
   21       -9.489647   1.000000
   22       -9.481954   1.000000
   23       -9.418546   1.000000
   24       -9.304761   1.000000
   25       -9.100019   1.000000
   26       -8.819773   1.000000
   27       -8.393935   1.000000
   28       -8.284316   1.000000
   29       -8.054935   1.000000
   30       -8.004050   1.000000
   31       -7.975707   1.000000
   32       -7.902436   1.000000
   33       -7.870367   1.000000
   34       -7.740485   1.000000
   35       -7.659662   1.000000
   36       -7.610483   1.000000
   37       -7.464319   1.000000
   38       -7.359825   1.000000
   39       -7.268764   1.000000
   40       -6.984292   1.000000
   41       -6.781181   1.000000
   42       -6.748961   1.000000
   43       -6.660110   1.000000
   44       -6.550159   1.000000
   45       -6.426112   1.000000
   46       -6.348982   1.000000
   47       -6.243563   1.000000
   48       -6.107365   1.000000
   49       -6.031723   1.000000
   50       -5.991449   1.000000
   51       -5.957565   1.000000
   52       -5.874571   1.000000
   53       -5.742577   1.000000
   54       -5.726117   1.000000
   55       -5.652706   1.000000
   56       -5.588402   1.000000
   57       -5.504774   1.000000
   58       -5.385067   1.000000
   59       -5.345975   1.000000
   60       -5.303864   1.000000
   61       -5.196900   1.000000
   62       -5.186009   1.000000
   63       -5.063277   1.000000
   64       -4.939165   1.000000
   65       -4.872301   1.000000
   66       -4.854297   1.000000
   67       -4.790452   1.000000
   68       -4.721746   1.000000
   69       -4.613702   1.000000
   70       -4.552750   1.000000
   71       -4.515979   1.000000
   72       -4.393350   1.000000
   73       -4.296808   1.000000
   74       -4.246650   1.000000
   75       -4.205997   1.000000
   76       -4.167636   1.000000
   77       -4.152864   1.000000
   78       -4.134184   1.000000
   79       -4.099955   1.000000
   80       -3.982589   1.000000
   81       -3.968068   1.000000
   82       -3.942063   1.000000
   83       -3.865871   1.000000
   84       -3.829562   1.000000
   85       -3.799825   1.000000
   86       -3.767348   1.000000
   87       -3.654489   1.000000
   88       -3.627825   1.000000
   89       -3.596336   1.000000
   90       -3.559676   1.000000
   91       -3.526729   1.000000
   92       -3.430368   1.000000
   93       -3.389845   1.000000
   94       -3.326573   1.000000
   95       -3.289694   1.000000
   96       -3.257492   1.000000
   97       -3.211192   1.000000
   98       -3.191418   1.000000
   99       -3.100685   1.000000
  100       -2.974721   1.000000
  101       -2.885298   1.000000
  102       -2.782956   1.000000
  103       -2.567116   1.000000
  104       -2.490083   1.000000
  105       -2.394274   1.000000
  106       -2.290007   1.000000
  107       -2.257355   1.000000
  108       -2.115906   1.000000
  109       -2.059802   1.000000
  110       -1.959484   1.000000
  111       -1.897817   1.000000
  112       -1.888735   1.000000
  113       -1.846447   1.000000
  114       -1.827843   1.000000
  115       -1.782300   1.000000
  116       -1.763374   1.000000
  117       -1.730302   1.000000
  118       -1.604515   1.000000
  119       -1.423443   1.000000
  120       -1.334103   1.000000
  121       -1.316674   1.000000
  122       -1.231772   1.000000
  123       -1.145657   1.000000
  124       -1.113755   1.000000
  125       -1.039655   1.000000
  126       -0.974587   1.000000
  127       -0.938199   1.000000
  128       -0.872036   1.000000
  129       -0.847079   1.000000
  130       -0.664383   1.000000
  131       -0.481466   1.000000
  132       -0.469511   1.000000
  133       -0.343860   1.000000
  134       -0.221866   1.000000
  135       -0.010353   1.000000
  136        0.095926   1.000000
  137        0.186607   1.000126
  138        0.212121   1.000473
  139        0.277318   1.007029
  140        0.322077   1.023454
  141        0.412382   0.955816
  142        0.463994   0.643554
  143        0.567105  -0.003572
  144        0.673760  -0.010103
  145        0.678745  -0.008658
  146        0.698652  -0.004377
  147        0.712529  -0.002563
  148        0.837779  -0.000003
  149        0.872139  -0.000000
  150        0.909097  -0.000000
  151        1.007436  -0.000000
  152        1.148961  -0.000000
  153        1.171839  -0.000000
  154        1.238157  -0.000000
  155        1.284678  -0.000000
  156        1.349265  -0.000000
  157        1.373306  -0.000000
  158        1.391945  -0.000000
  159        1.461557  -0.000000
  160        1.474262  -0.000000
  161        1.505647  -0.000000
  162        1.529618  -0.000000
  163        1.564852  -0.000000
  164        1.609273  -0.000000
  165        1.620706  -0.000000
  166        1.640643  -0.000000
  167        1.657483  -0.000000
  168        1.710513  -0.000000
  169        1.737117  -0.000000
  170        1.763102  -0.000000
  171        1.787361  -0.000000
  172        1.801072  -0.000000
  173        1.846359  -0.000000
  174        1.895658  -0.000000
  175        1.915804  -0.000000
  176        1.935014  -0.000000
  177        1.966691  -0.000000
  178        1.982040  -0.000000
  179        1.990002  -0.000000
  180        2.017984  -0.000000
  181        2.063388  -0.000000
  182        2.089559  -0.000000
  183        2.131461  -0.000000
  184        2.215428  -0.000000

  0.3742002E-15  0.1111111E+00  0.1262379E-14  0.4444444E-01
    1      -13.897727   1.000000
    2      -12.778049   1.000000
    3      -12.717382   1.000000
    4      -12.687041   1.000000
    5      -11.875110   1.000000
    6      -11.634309   1.000000
    7      -11.595825   1.000000
    8      -11.581487   1.000000
    9      -11.418050   1.000000
   10      -11.295943   1.000000
   11      -11.182157   1.000000
   12      -11.073407   1.000000
   13      -11.017005   1.000000
   14      -10.677045   1.000000
   15      -10.467494   1.000000
   16      -10.271553   1.000000
   17      -10.135345   1.000000
   18      -10.081882   1.000000
   19       -9.893816   1.000000
   20       -9.750173   1.000000
   21       -9.664827   1.000000
   22       -9.519529   1.000000
   23       -9.478696   1.000000
   24       -9.380103   1.000000
   25       -8.912633   1.000000
   26       -8.853724   1.000000
   27       -8.783089   1.000000
   28       -8.538314   1.000000
   29       -8.464907   1.000000
   30       -8.322877   1.000000
   31       -8.013860   1.000000
   32       -7.887857   1.000000
   33       -7.823955   1.000000
   34       -7.446956   1.000000
   35       -7.396951   1.000000
   36       -7.352527   1.000000
   37       -7.209166   1.000000
   38       -7.079305   1.000000
   39       -6.925115   1.000000
   40       -6.887105   1.000000
   41       -6.747200   1.000000
   42       -6.706219   1.000000
   43       -6.652812   1.000000
   44       -6.605022   1.000000
   45       -6.592974   1.000000
   46       -6.492039   1.000000
   47       -6.415695   1.000000
   48       -6.179730   1.000000
   49       -6.163684   1.000000
   50       -6.061831   1.000000
   51       -5.938754   1.000000
   52       -5.857256   1.000000
   53       -5.781636   1.000000
   54       -5.734098   1.000000
   55       -5.642749   1.000000
   56       -5.593375   1.000000
   57       -5.528823   1.000000
   58       -5.468267   1.000000
   59       -5.380899   1.000000
   60       -5.355304   1.000000
   61       -5.248495   1.000000
   62       -5.163775   1.000000
   63       -5.003685   1.000000
   64       -4.936216   1.000000
   65       -4.807181   1.000000
   66       -4.742036   1.000000
   67       -4.665121   1.000000
   68       -4.643895   1.000000
   69       -4.587125   1.000000
   70       -4.563445   1.000000
   71       -4.464457   1.000000
   72       -4.411266   1.000000
   73       -4.390190   1.000000
   74       -4.338030   1.000000
   75       -4.274667   1.000000
   76       -4.169509   1.000000
   77       -4.165379   1.000000
   78       -4.108721   1.000000
   79       -4.078526   1.000000
   80       -4.059351   1.000000
   81       -4.033646   1.000000
   82       -4.009382   1.000000
   83       -3.995911   1.000000
   84       -3.948794   1.000000
   85       -3.791635   1.000000
   86       -3.752399   1.000000
   87       -3.704060   1.000000
   88       -3.687230   1.000000
   89       -3.613006   1.000000
   90       -3.590044   1.000000
   91       -3.547450   1.000000
   92       -3.501012   1.000000
   93       -3.470491   1.000000
   94       -3.356722   1.000000
   95       -3.250540   1.000000
   96       -3.015127   1.000000
   97       -2.960624   1.000000
   98       -2.923619   1.000000
   99       -2.800792   1.000000
  100       -2.780260   1.000000
  101       -2.738620   1.000000
  102       -2.727395   1.000000
  103       -2.666194   1.000000
  104       -2.573053   1.000000
  105       -2.530309   1.000000
  106       -2.406633   1.000000
  107       -2.331846   1.000000
  108       -2.270075   1.000000
  109       -2.242966   1.000000
  110       -2.196448   1.000000
  111       -2.134696   1.000000
  112       -2.058372   1.000000
  113       -2.037901   1.000000
  114       -1.922968   1.000000
  115       -1.860031   1.000000
  116       -1.786283   1.000000
  117       -1.727470   1.000000
  118       -1.598075   1.000000
  119       -1.571987   1.000000
  120       -1.550967   1.000000
  121       -1.402672   1.000000
  122       -1.133065   1.000000
  123       -1.028302   1.000000
  124       -0.984881   1.000000
  125       -0.884281   1.000000
  126       -0.803746   1.000000
  127       -0.709726   1.000000
  128       -0.665811   1.000000
  129       -0.504165   1.000000
  130       -0.381584   1.000000
  131       -0.326084   1.000000
  132       -0.285779   1.000000
  133       -0.235158   1.000000
  134       -0.042923   1.000000
  135        0.014525   1.000000
  136        0.078718   1.000000
  137        0.125203   1.000003
  138        0.203870   1.000313
  139        0.229111   1.001052
  140        0.279660   1.007595
  141        0.370939   1.032778
  142        0.412972   0.953675
  143        0.547630   0.053361
  144        0.570740  -0.010525
  145        0.577713  -0.021072
  146        0.659016  -0.015300
  147        0.691863  -0.005587
  148        0.763916  -0.000238
  149        0.882383  -0.000000
  150        0.914948  -0.000000
  151        0.971082  -0.000000
  152        1.050684  -0.000000
  153        1.106975  -0.000000
  154        1.139528  -0.000000
  155        1.201003  -0.000000
  156        1.238327  -0.000000
  157        1.257168  -0.000000
  158        1.265789  -0.000000
  159        1.413903  -0.000000
  160        1.428653  -0.000000
  161        1.436677  -0.000000
  162        1.446092  -0.000000
  163        1.459887  -0.000000
  164        1.476555  -0.000000
  165        1.510752  -0.000000
  166        1.621380  -0.000000
  167        1.645743  -0.000000
  168        1.692311  -0.000000
  169        1.717249  -0.000000
  170        1.748119  -0.000000
  171        1.762985  -0.000000
  172        1.791359  -0.000000
  173        1.819354  -0.000000
  174        1.851363  -0.000000
  175        1.871371  -0.000000
  176        1.885603  -0.000000
  177        1.901475  -0.000000
  178        1.923041  -0.000000
  179        1.956608  -0.000000
  180        2.001095  -0.000000
  181        2.046605  -0.000000
  182        2.082275  -0.000000
  183        2.179985  -0.000000
  184        2.221788  -0.000000

  0.2000000E+00  0.1111111E+00  0.1262379E-14  0.4444444E-01
    1      -13.849579   1.000000
    2      -13.149983   1.000000
    3      -12.643922   1.000000
    4      -12.272868   1.000000
    5      -11.992251   1.000000
    6      -11.857223   1.000000
    7      -11.659948   1.000000
    8      -11.332917   1.000000
    9      -11.290453   1.000000
   10      -11.173742   1.000000
   11      -11.146351   1.000000
   12      -11.101843   1.000000
   13      -10.933663   1.000000
   14      -10.749167   1.000000
   15      -10.565486   1.000000
   16      -10.542666   1.000000
   17      -10.501676   1.000000
   18       -9.883363   1.000000
   19       -9.812293   1.000000
   20       -9.727032   1.000000
   21       -9.519760   1.000000
   22       -9.510458   1.000000
   23       -9.458372   1.000000
   24       -9.419131   1.000000
   25       -9.104558   1.000000
   26       -8.923276   1.000000
   27       -8.528363   1.000000
   28       -8.394054   1.000000
   29       -8.269078   1.000000
   30       -8.202640   1.000000
   31       -8.160302   1.000000
   32       -7.947169   1.000000
   33       -7.716243   1.000000
   34       -7.604642   1.000000
   35       -7.465519   1.000000
   36       -7.421168   1.000000
   37       -7.219593   1.000000
   38       -7.108729   1.000000
   39       -7.099264   1.000000
   40       -6.878725   1.000000
   41       -6.837237   1.000000
   42       -6.783126   1.000000
   43       -6.701808   1.000000
   44       -6.623795   1.000000
   45       -6.604560   1.000000
   46       -6.556916   1.000000
   47       -6.277310   1.000000
   48       -6.137626   1.000000
   49       -6.011406   1.000000
   50       -5.987135   1.000000
   51       -5.898550   1.000000
   52       -5.840295   1.000000
   53       -5.791950   1.000000
   54       -5.692061   1.000000
   55       -5.632145   1.000000
   56       -5.541205   1.000000
   57       -5.500276   1.000000
   58       -5.408080   1.000000
   59       -5.359136   1.000000
   60       -5.308665   1.000000
   61       -5.237809   1.000000
   62       -5.215547   1.000000
   63       -5.123401   1.000000
   64       -4.980171   1.000000
   65       -4.824135   1.000000
   66       -4.732453   1.000000
   67       -4.699322   1.000000
   68       -4.630811   1.000000
   69       -4.589864   1.000000
   70       -4.562532   1.000000
   71       -4.454283   1.000000
   72       -4.380377   1.000000
   73       -4.354944   1.000000
   74       -4.289310   1.000000
   75       -4.233256   1.000000
   76       -4.174225   1.000000
   77       -4.159939   1.000000
   78       -4.139523   1.000000
   79       -4.129507   1.000000
   80       -4.094291   1.000000
   81       -4.043594   1.000000
   82       -4.022027   1.000000
   83       -3.964193   1.000000
   84       -3.859526   1.000000
   85       -3.841937   1.000000
   86       -3.756070   1.000000
   87       -3.666915   1.000000
   88       -3.643754   1.000000
   89       -3.625558   1.000000
   90       -3.587994   1.000000
   91       -3.563420   1.000000
   92       -3.503173   1.000000
   93       -3.476665   1.000000
   94       -3.384554   1.000000
   95       -3.207808   1.000000
   96       -3.115254   1.000000
   97       -3.027401   1.000000
   98       -2.971082   1.000000
   99       -2.911815   1.000000
  100       -2.846321   1.000000
  101       -2.794475   1.000000
  102       -2.770196   1.000000
  103       -2.688857   1.000000
  104       -2.534498   1.000000
  105       -2.455668   1.000000
  106       -2.393073   1.000000
  107       -2.302535   1.000000
  108       -2.252673   1.000000
  109       -2.160353   1.000000
  110       -2.085170   1.000000
  111       -2.053453   1.000000
  112       -2.005147   1.000000
  113       -1.980317   1.000000
  114       -1.894685   1.000000
  115       -1.835154   1.000000
  116       -1.786625   1.000000
  117       -1.762974   1.000000
  118       -1.685097   1.000000
  119       -1.583130   1.000000
  120       -1.413626   1.000000
  121       -1.337680   1.000000
  122       -1.161036   1.000000
  123       -1.074950   1.000000
  124       -1.024174   1.000000
  125       -0.981250   1.000000
  126       -0.914135   1.000000
  127       -0.784029   1.000000
  128       -0.713170   1.000000
  129       -0.555680   1.000000
  130       -0.455993   1.000000
  131       -0.335825   1.000000
  132       -0.293550   1.000000
  133       -0.202468   1.000000
  134       -0.069658   1.000000
  135       -0.026996   1.000000
  136        0.015308   1.000000
  137        0.063620   1.000000
  138        0.117437   1.000002
  139        0.230818   1.001136
  140        0.390571   1.012535
  141        0.437353   0.834689
  142        0.455839   0.707446
  143        0.475531   0.548207
  144        0.594100  -0.033841
  145        0.615251  -0.033713
  146        0.678829  -0.008635
  147        0.760754  -0.000280
  148        0.818618  -0.000010
  149        0.841288  -0.000002
  150        0.926992  -0.000000
  151        0.956722  -0.000000
  152        1.091125  -0.000000
  153        1.162121  -0.000000
  154        1.198605  -0.000000
  155        1.248193  -0.000000
  156        1.281497  -0.000000
  157        1.318642  -0.000000