 running on   72 total cores
 distrk:  each k-point on   72 cores,    1 groups
 distr:  one band on    9 cores,    8 groups
 using from now: INCAR     
 vasp.5.4.4.18Apr17-6-g9f103f2a35 (build Dec  7 2020 12:43:57) complex           
 POSCAR found type information on POSCAR  Mo V  B  H 
 POSCAR found :  4 types and      75 ions
 scaLAPACK will be used
 LDA part: xc-table for Pade appr. of Perdew
 POSCAR, INCAR and KPOINTS ok, starting setup
 resort distribution
 resort distribution
 resort distribution
 resort distribution
 resort distribution
 resort distribution
 resort distribution
 resort distribution
 resort distribution
 resort distribution
 resort distribution
 resort distribution
 resort distribution
 resort distribution
 resort distribution
 resort distribution
 resort distribution
 resort distribution
 resort distribution
 resort distribution
 resort distribution
 resort distribution
 resort distribution
 resort distribution
 resort distribution
 resort distribution
 resort distribution
 resort distribution
 resort distribution
 resort distribution
 resort distribution
 resort distribution
 resort distribution
 resort distribution
 resort distribution
 resort distribution
 resort distribution
 resort distribution
 resort distribution
 resort distribution
 resort distribution
 resort distribution
 resort distribution
 resort distribution
 resort distribution
 resort distribution
 resort distribution
 resort distribution
 resort distribution
 resort distribution
 resort distribution
 resort distribution
 resort distribution
 resort distribution
 resort distribution
 resort distribution
 resort distribution
 resort distribution
 resort distribution
 resort distribution
 resort distribution
 resort distribution
 resort distribution
 resort distribution
 resort distribution
 resort distribution
 resort distribution
 resort distribution
 resort distribution
 resort distribution
 resort distribution
 resort distribution
 FFT: planning ...
 WAVECAR not read
 augmentation electrons   285.03098777731140     
 soft         electrons   0.0000000000000000     
 augmentation electrons   285.03098777731140     
 soft         electrons   0.0000000000000000     
 augmentation electrons   285.03098777731140     
 soft         electrons   0.0000000000000000     
 augmentation electrons   285.03098777731140     
 soft         electrons   0.0000000000000000     
 augmentation electrons   285.03098777731140     
 soft         electrons   0.0000000000000000     
 augmentation electrons   285.03098777731140     
 soft         electrons   0.0000000000000000     
 augmentation electrons   285.03098777731140     
 soft         electrons   0.0000000000000000     
 augmentation electrons   285.03098777731140     
 soft         electrons   0.0000000000000000     
 augmentation electrons   285.03098777731140     
 soft         electrons   0.0000000000000000     
 augmentation electrons   285.03098777731140     
 soft         electrons   0.0000000000000000     
 augmentation electrons   285.03098777731140     
 soft         electrons   0.0000000000000000     
 augmentation electrons   285.03098777731140     
 soft         electrons   0.0000000000000000     
 augmentation electrons   285.03098777731140     
 soft         electrons   0.0000000000000000     
 augmentation electrons   285.03098777731140     
 soft         electrons   0.0000000000000000     
 augmentation electrons   285.03098777731140     
 soft         electrons   0.0000000000000000     
 augmentation electrons   285.03098777731140     
 soft         electrons   0.0000000000000000     
 augmentation electrons   285.03098777731140     
 soft         electrons   0.0000000000000000     
 augmentation electrons   285.03098777731140     
 soft         electrons   0.0000000000000000     
 augmentation electrons   285.03098777731140     
 soft         electrons   0.0000000000000000     
 augmentation electrons   285.03098777731140     
 soft         electrons   0.0000000000000000     
 augmentation electrons   285.03098777731140     
 soft         electrons   0.0000000000000000     
 augmentation electrons   285.03098777731140     
 soft         electrons   0.0000000000000000     
 augmentation electrons   285.03098777731140     
 soft         electrons   0.0000000000000000     
 augmentation electrons   285.03098777731140     
 soft         electrons   0.0000000000000000     
 augmentation electrons   285.03098777731140     
 soft         electrons   0.0000000000000000     
 augmentation electrons   285.03098777731140     
 soft         electrons   0.0000000000000000     
 augmentation electrons   285.03098777731140     
 soft         electrons   0.0000000000000000     
 augmentation electrons   285.03098777731140     
 soft         electrons   0.0000000000000000     
 augmentation electrons   285.03098777731140     
 soft         electrons   0.0000000000000000     
 augmentation electrons   285.03098777731140     
 soft         electrons   0.0000000000000000     
 augmentation electrons   285.03098777731140     
 soft         electrons   0.0000000000000000     
 augmentation electrons   285.03098777731140     
 soft         electrons   0.0000000000000000     
 augmentation electrons   285.03098777731140     
 soft         electrons   0.0000000000000000     
 augmentation electrons   285.03098777731140     
 soft         electrons   0.0000000000000000     
 augmentation electrons   285.03098777731140     
 soft         electrons   0.0000000000000000     
 augmentation electrons   285.03098777731140     
 soft         electrons   0.0000000000000000     
 augmentation electrons   285.03098777731140     
 soft         electrons   0.0000000000000000     
 augmentation electrons   285.03098777731140     
 soft         electrons   0.0000000000000000     
 augmentation electrons   285.03098777731140     
 soft         electrons   0.0000000000000000     
 augmentation electrons   285.03098777731140     
 soft         electrons   0.0000000000000000     
 augmentation electrons   285.03098777731140     
 soft         electrons   0.0000000000000000     
 augmentation electrons   285.03098777731140     
 soft         electrons   0.0000000000000000     
 augmentation electrons   285.03098777731140     
 soft         electrons   0.0000000000000000     
 augmentation electrons   285.03098777731140     
 soft         electrons   0.0000000000000000     
 augmentation electrons   285.03098777731140     
 soft         electrons   0.0000000000000000     
 augmentation electrons   285.03098777731140     
 soft         electrons   0.0000000000000000     
 augmentation electrons   285.03098777731140     
 soft         electrons   0.0000000000000000     
 augmentation electrons   285.03098777731140     
 soft         electrons   0.0000000000000000     
 augmentation electrons   285.03098777731140     
 soft         electrons   0.0000000000000000     
 augmentation electrons   285.03098777731140     
 soft         electrons   0.0000000000000000     
 augmentation electrons   285.03098777731140     
 soft         electrons   0.0000000000000000     
 augmentation electrons   285.03098777731140     
 soft         electrons   0.0000000000000000     
 augmentation electrons   285.03098777731140     
 soft         electrons   0.0000000000000000     
 augmentation electrons   285.03098777731140     
 soft         electrons   0.0000000000000000     
 augmentation electrons   285.03098777731140     
 soft         electrons   0.0000000000000000     
 augmentation electrons   285.03098777731140     
 soft         electrons   0.0000000000000000     
 augmentation electrons   285.03098777731140     
 soft         electrons   0.0000000000000000     
 augmentation electrons   285.03098777731140     
 soft         electrons   0.0000000000000000     
 augmentation electrons   285.03098777731140     
 soft         electrons   0.0000000000000000     
 augmentation electrons   285.03098777731140     
 soft         electrons   0.0000000000000000     
 augmentation electrons   285.03098777731140     
 soft         electrons   0.0000000000000000     
 augmentation electrons   285.03098777731140     
 soft         electrons   0.0000000000000000     
 augmentation electrons   285.03098777731140     
 soft         electrons   0.0000000000000000     
 augmentation electrons   285.03098777731140     
 soft         electrons   0.0000000000000000     
 augmentation electrons   285.03098777731140     
 soft         electrons   0.0000000000000000     
 augmentation electrons   285.03098777731140     
 soft         electrons   0.0000000000000000     
 augmentation electrons   285.03098777731140     
 soft         electrons   0.0000000000000000     
 augmentation electrons   285.03098777731140     
 soft         electrons   0.0000000000000000     
 augmentation electrons   285.03098777731140     
 soft         electrons   0.0000000000000000     
 augmentation electrons   285.03098777731140     
 soft         electrons   0.0000000000000000     
 augmentation electrons   285.03098777731140     
 soft         electrons   0.0000000000000000     
 augmentation electrons   285.03098777731140     
 soft         electrons   0.0000000000000000     
 total        electrons   285.03098777731140     
 total        electrons   285.03098777731140     
 total        electrons   285.03098777731140     
 total        electrons   285.03098777731140     
 total        electrons   285.03098777731140     
 total        electrons   285.03098777731140     
 total        electrons   285.03098777731140     
 total        electrons   285.03098777731140     
 total        electrons   285.03098777731140     
 total        electrons   285.03098777731140     
 total        electrons   285.03098777731140     
 total        electrons   285.03098777731140     
 total        electrons   285.03098777731140     
 total        electrons   285.03098777731140     
 total        electrons   285.03098777731140     
 total        electrons   285.03098777731140     
 total        electrons   285.03098777731140     
 total        electrons   285.03098777731140     
 total        electrons   285.03098777731140     
 total        electrons   285.03098777731140     
 total        electrons   285.03098777731140     
 total        electrons   285.03098777731140     
 total        electrons   285.03098777731140     
 total        electrons   285.03098777731140     
 total        electrons   285.03098777731140     
 total        electrons   285.03098777731140     
 total        electrons   285.03098777731140     
 total        electrons   285.03098777731140     
 total        electrons   285.03098777731140     
 total        electrons   285.03098777731140     
 total        electrons   285.03098777731140     
 total        electrons   285.03098777731140     
 total        electrons   285.03098777731140     
 total        electrons   285.03098777731140     
 total        electrons   285.03098777731140     
 total        electrons   285.03098777731140     
 total        electrons   285.03098777731140     
 total        electrons   285.03098777731140     
 total        electrons   285.03098777731140     
 total        electrons   285.03098777731140     
 total        electrons   285.03098777731140     
 total        electrons   285.03098777731140     
 total        electrons   285.03098777731140     
 total        electrons   285.03098777731140     
 total        electrons   285.03098777731140     
 total        electrons   285.03098777731140     
 total        electrons   285.03098777731140     
 total        electrons   285.03098777731140     
 total        electrons   285.03098777731140     
 total        electrons   285.03098777731140     
 total        electrons   285.03098777731140     
 total        electrons   285.03098777731140     
 total        electrons   285.03098777731140     
 total        electrons   285.03098777731140     
 total        electrons   285.03098777731140     
 total        electrons   285.03098777731140     
 total        electrons   285.03098777731140     
 total        electrons   285.03098777731140     
 total        electrons   285.03098777731140     
 total        electrons   285.03098777731140     
 total        electrons   285.03098777731140     
 total        electrons   285.03098777731140     
 total        electrons   285.03098777731140     
 total        electrons   285.03098777731140     
 total        electrons   285.03098777731140     
 total        electrons   285.03098777731140     
 total        electrons   285.03098777731140     
 total        electrons   285.03098777731140     
 total        electrons   285.03098777731140     
 total        electrons   285.03098777731140     
 total        electrons   285.03098777731140     
 total        electrons   285.03098777731140     
 augmentation electrons   997.07737191289675     
 soft         electrons   0.0000000000000000     
 total        electrons   997.07737191289675     
 augmentation electrons   997.07737191289675     
 soft         electrons   0.0000000000000000     
 total        electrons   997.07737191289675     
 augmentation electrons   997.07737191289675     
 soft         electrons   0.0000000000000000     
 total        electrons   997.07737191289675     
 augmentation electrons   997.07737191289675     
 soft         electrons   0.0000000000000000     
 total        electrons   997.07737191289675     
 augmentation electrons   997.07737191289675     
 soft         electrons   0.0000000000000000     
 total        electrons   997.07737191289675     
 augmentation electrons   997.07737191289675     
 soft         electrons   0.0000000000000000     
 total        electrons   997.07737191289675     
 augmentation electrons   997.07737191289675     
 soft         electrons   0.0000000000000000     
 total        electrons   997.07737191289675     
 augmentation electrons   997.07737191289675     
 soft         electrons   0.0000000000000000     
 total        electrons   997.07737191289675     
 augmentation electrons   997.07737191289675     
 soft         electrons   0.0000000000000000     
 total        electrons   997.07737191289675     
 augmentation electrons   997.07737191289675     
 soft         electrons   0.0000000000000000     
 total        electrons   997.07737191289675     
 augmentation electrons   997.07737191289675     
 soft         electrons   0.0000000000000000     
 total        electrons   997.07737191289675     
 augmentation electrons   997.07737191289675     
 soft         electrons   0.0000000000000000     
 total        electrons   997.07737191289675     
 augmentation electrons   997.07737191289675     
 soft         electrons   0.0000000000000000     
 total        electrons   997.07737191289675     
 augmentation electrons   997.07737191289675     
 soft         electrons   0.0000000000000000     
 total        electrons   997.07737191289675     
 augmentation electrons   997.07737191289675     
 soft         electrons   0.0000000000000000     
 total        electrons   997.07737191289675     
 augmentation electrons   997.07737191289675     
 soft         electrons   0.0000000000000000     
 total        electrons   997.07737191289675     
 augmentation electrons   997.07737191289675     
 soft         electrons   0.0000000000000000     
 total        electrons   997.07737191289675     
 augmentation electrons   997.07737191289675     
 soft         electrons   0.0000000000000000     
 total        electrons   997.07737191289675     
 augmentation electrons   997.07737191289675     
 soft         electrons   0.0000000000000000     
 total        electrons   997.07737191289675     
 augmentation electrons   997.07737191289675     
 soft         electrons   0.0000000000000000     
 total        electrons   997.07737191289675     
 augmentation electrons   997.07737191289675     
 soft         electrons   0.0000000000000000     
 total        electrons   997.07737191289675     
 augmentation electrons   997.07737191289675     
 soft         electrons   0.0000000000000000     
 augmentation electrons   997.07737191289675     
 soft         electrons   0.0000000000000000     
 total        electrons   997.07737191289675     
 augmentation electrons   997.07737191289675     
 soft         electrons   0.0000000000000000     
 total        electrons   997.07737191289675     
 augmentation electrons   997.07737191289675     
 soft         electrons   0.0000000000000000     
 total        electrons   997.07737191289675     
 augmentation electrons   997.07737191289675     
 soft         electrons   0.0000000000000000     
 total        electrons   997.07737191289675     
 augmentation electrons   997.07737191289675     
 soft         electrons   0.0000000000000000     
 total        electrons   997.07737191289675     
 augmentation electrons   997.07737191289675     
 soft         electrons   0.0000000000000000     
 augmentation electrons   997.07737191289675     
 soft         electrons   0.0000000000000000     
 total        electrons   997.07737191289675     
 augmentation electrons   997.07737191289675     
 soft         electrons   0.0000000000000000     
 total        electrons   997.07737191289675     
 augmentation electrons   997.07737191289675     
 soft         electrons   0.0000000000000000     
 total        electrons   997.07737191289675     
 augmentation electrons   997.07737191289675     
 soft         electrons   0.0000000000000000     
 total        electrons   997.07737191289675     
 augmentation electrons   997.07737191289675     
 soft         electrons   0.0000000000000000     
 total        electrons   997.07737191289675     
 augmentation electrons   997.07737191289675     
 soft         electrons   0.0000000000000000     
 total        electrons   997.07737191289675     
 augmentation electrons   997.07737191289675     
 soft         electrons   0.0000000000000000     
 total        electrons   997.07737191289675     
 augmentation electrons   997.07737191289675     
 soft         electrons   0.0000000000000000     
 total        electrons   997.07737191289675     
 augmentation electrons   997.07737191289675     
 soft         electrons   0.0000000000000000     
 total        electrons   997.07737191289675     
 augmentation electrons   997.07737191289675     
 soft         electrons   0.0000000000000000     
 total        electrons   997.07737191289675     
 augmentation electrons   997.07737191289675     
 soft         electrons   0.0000000000000000     
 total        electrons   997.07737191289675     
 augmentation electrons   997.07737191289675     
 soft         electrons   0.0000000000000000     
 total        electrons   997.07737191289675     
 augmentation electrons   997.07737191289675     
 soft         electrons   0.0000000000000000     
 total        electrons   997.07737191289675     
 augmentation electrons   997.07737191289675     
 soft         electrons   0.0000000000000000     
 total        electrons   997.07737191289675     
 augmentation electrons   997.07737191289675     
 soft         electrons   0.0000000000000000     
 total        electrons   997.07737191289675     
 augmentation electrons   997.07737191289675     
 soft         electrons   0.0000000000000000     
 total        electrons   997.07737191289675     
 augmentation electrons   997.07737191289675     
 soft         electrons   0.0000000000000000     
 total        electrons   997.07737191289675     
 augmentation electrons   997.07737191289675     
 soft         electrons   0.0000000000000000     
 total        electrons   997.07737191289675     
 augmentation electrons   997.07737191289675     
 soft         electrons   0.0000000000000000     
 total        electrons   997.07737191289675     
 augmentation electrons   997.07737191289675     
 soft         electrons   0.0000000000000000     
 total        electrons   997.07737191289675     
 augmentation electrons   997.07737191289675     
 soft         electrons   0.0000000000000000     
 total        electrons   997.07737191289675     
 augmentation electrons   997.07737191289675     
 soft         electrons   0.0000000000000000     
 total        electrons   997.07737191289675     
 augmentation electrons   997.07737191289675     
 soft         electrons   0.0000000000000000     
 total        electrons   997.07737191289675     
 augmentation electrons   997.07737191289675     
 soft         electrons   0.0000000000000000     
 total        electrons   997.07737191289675     
 augmentation electrons   997.07737191289675     
 soft         electrons   0.0000000000000000     
 total        electrons   997.07737191289675     
 augmentation electrons   997.07737191289675     
 soft         electrons   0.0000000000000000     
 total        electrons   997.07737191289675     
 augmentation electrons   997.07737191289675     
 soft         electrons   0.0000000000000000     
 total        electrons   997.07737191289675     
 augmentation electrons   997.07737191289675     
 soft         electrons   0.0000000000000000     
 total        electrons   997.07737191289675     
 augmentation electrons   997.07737191289675     
 soft         electrons   0.0000000000000000     
 total        electrons   997.07737191289675     
 augmentation electrons   997.07737191289675     
 soft         electrons   0.0000000000000000     
 total        electrons   997.07737191289675     
 augmentation electrons   997.07737191289675     
 soft         electrons   0.0000000000000000     
 total        electrons   997.07737191289675     
 augmentation electrons   997.07737191289675     
 soft         electrons   0.0000000000000000     
 total        electrons   997.07737191289675     
 augmentation electrons   997.07737191289675     
 soft         electrons   0.0000000000000000     
 augmentation electrons   997.07737191289675     
 soft         electrons   0.0000000000000000     
 total        electrons   997.07737191289675     
 augmentation electrons   997.07737191289675     
 soft         electrons   0.0000000000000000     
 total        electrons   997.07737191289675     
 augmentation electrons   997.07737191289675     
 soft         electrons   0.0000000000000000     
 total        electrons   997.07737191289675     
 augmentation electrons   997.07737191289675     
 soft         electrons   0.0000000000000000     
 total        electrons   997.07737191289675     
 augmentation electrons   997.07737191289675     
 soft         electrons   0.0000000000000000     
 augmentation electrons   997.07737191289675     
 soft         electrons   0.0000000000000000     
 total        electrons   997.07737191289675     
 augmentation electrons   997.07737191289675     
 soft         electrons   0.0000000000000000     
 total        electrons   997.07737191289675     
 augmentation electrons   997.07737191289675     
 soft         electrons   0.0000000000000000     
 total        electrons   997.07737191289675     
 augmentation electrons   997.07737191289675     
 soft         electrons   0.0000000000000000     
 total        electrons   997.07737191289675     
 augmentation electrons   997.07737191289675     
 soft         electrons   0.0000000000000000     
 total        electrons   997.07737191289675     
 augmentation electrons   997.07737191289675     
 soft         electrons   0.0000000000000000     
 total        electrons   997.07737191289675     
 total        electrons   997.07737191289675     
 total        electrons   997.07737191289675     
 total        electrons   997.07737191289675     
 total        electrons   997.07737191289675     
 entering main loop
       N       E                     dE             d eps       ncg     rms          rms(c)
DAV:   1     0.247202879323E+04    0.24720E+04   -0.10375E+05  8472   0.127E+03
DAV:   2    -0.216201550086E+03   -0.26882E+04   -0.24973E+04  9672   0.315E+02
DAV:   3    -0.658611174234E+03   -0.44241E+03   -0.42009E+03 11976   0.147E+02
DAV:   4    -0.696665448547E+03   -0.38054E+02   -0.36236E+02 13696   0.469E+01
DAV:   5    -0.699213467818E+03   -0.25480E+01   -0.24502E+01 14384   0.113E+01    0.148E+02
RMM:   6    -0.647908474323E+03    0.51305E+02   -0.11619E+03 11672   0.888E+01    0.728E+01
RMM:   7    -0.724795416996E+03   -0.76887E+02   -0.37890E+02 11685   0.360E+01    0.536E+01
RMM:   8    -0.614425294771E+03    0.11037E+03   -0.81216E+01 10336   0.265E+01    0.322E+01
RMM:   9    -0.617551465636E+03   -0.31262E+01   -0.45842E+01 10897   0.160E+01    0.305E+01
RMM:  10    -0.595272588654E+03    0.22279E+02   -0.18812E+01 10004   0.118E+01    0.188E+01
RMM:  11    -0.595145654313E+03    0.12693E+00   -0.47205E+00 10636   0.514E+00    0.168E+01
RMM:  12    -0.595318458730E+03   -0.17280E+00   -0.15176E+00 11481   0.186E+00    0.157E+01
RMM:  13    -0.594695376878E+03    0.62308E+00   -0.18175E+00  8608   0.424E+00    0.133E+01
RMM:  14    -0.594737543021E+03   -0.42166E-01   -0.74705E+00  8498   0.941E+00    0.962E+00
RMM:  15    -0.594285356261E+03    0.45219E+00   -0.23703E+00 10701   0.348E+00    0.630E+00
RMM:  16    -0.594109436250E+03    0.17592E+00   -0.85859E-01  9187   0.247E+00    0.531E+00
RMM:  17    -0.593874872415E+03    0.23456E+00   -0.72252E-01 10836   0.184E+00    0.246E+00
RMM:  18    -0.593832934484E+03    0.41938E-01   -0.63595E-01 11605   0.134E+00    0.146E+00
RMM:  19    -0.593836247593E+03   -0.33131E-02   -0.92521E-02 11100   0.629E-01    0.134E+00
RMM:  20    -0.593825053711E+03    0.11194E-01   -0.47890E-02  8953   0.675E-01    0.116E+00
RMM:  21    -0.593818522284E+03    0.65314E-02   -0.74529E-02 11086   0.580E-01    0.931E-01
RMM:  22    -0.593808961853E+03    0.95604E-02   -0.25465E-02  9051   0.500E-01    0.235E-01
RMM:  23    -0.593810804290E+03   -0.18424E-02   -0.12461E-02 11493   0.157E-01    0.198E-01
RMM:  24    -0.593811062874E+03   -0.25858E-03   -0.19705E-03  9135   0.113E-01    0.146E-01
RMM:  25    -0.593812440556E+03   -0.13777E-02   -0.29895E-03 10486   0.125E-01    0.246E-01
RMM:  26    -0.593812616323E+03   -0.17577E-03   -0.27490E-03  8466   0.188E-01    0.118E-01
RMM:  27    -0.593813415402E+03   -0.79908E-03   -0.80984E-04  8572   0.959E-02    0.917E-02
RMM:  28    -0.593814211201E+03   -0.79580E-03   -0.73522E-04 10731   0.308E-02    0.932E-02
RMM:  29    -0.593814538132E+03   -0.32693E-03   -0.23484E-04  9176   0.387E-02    0.340E-02
RMM:  30    -0.593814736917E+03   -0.19878E-03   -0.15196E-04 10709   0.142E-02    0.213E-02
RMM:  31    -0.593814872710E+03   -0.13579E-03   -0.34180E-05  8960   0.125E-02    0.237E-02
RMM:  32    -0.593814937869E+03   -0.65158E-04   -0.51887E-05  9972   0.119E-02    0.591E-03
RMM:  33    -0.593815018885E+03   -0.81016E-04   -0.17453E-05  7385   0.824E-03    0.123E-02
RMM:  34    -0.593815133062E+03   -0.11418E-03   -0.47682E-06  6142   0.441E-03    0.732E-03
RMM:  35    -0.593815276554E+03   -0.14349E-03   -0.10718E-05  6712   0.614E-03    0.123E-02
RMM:  36    -0.593815352722E+03   -0.76169E-04   -0.10614E-05  6906   0.947E-03    0.428E-03
RMM:  37    -0.593815375574E+03   -0.22852E-04   -0.34458E-06  5925   0.507E-03    0.734E-03
RMM:  38    -0.593815410551E+03   -0.34977E-04   -0.48503E-06  6256   0.512E-03    0.336E-03
RMM:  39    -0.593815416891E+03   -0.63401E-05   -0.11163E-06  5250   0.231E-03    0.125E-03
RMM:  40    -0.593815419324E+03   -0.24333E-05   -0.53803E-07  5064   0.247E-03    0.194E-03
RMM:  41    -0.593815422242E+03   -0.29181E-05   -0.40533E-07  4823   0.162E-03    0.348E-04
RMM:  42    -0.593815424678E+03   -0.24354E-05   -0.34654E-07  4486   0.146E-03    0.786E-04
RMM:  43    -0.593815425003E+03   -0.32552E-06   -0.17770E-07  3653   0.115E-03
   1 F= -.59381543E+03 E0= -.59381659E+03  d E =-.593815E+03
 curvature:   0.00 expect dE= 0.000E+00 dE for cont linesearch  0.000E+00
 trial: gam= 0.00000 g(F)=  0.424E-02 g(S)=  0.000E+00 ort = 0.000E+00 (trialstep = 0.100E+01)
 search vector abs. value=  0.424E-02
 bond charge predicted
       N       E                     dE             d eps       ncg     rms          rms(c)
DAV:   1    -0.593819351266E+03   -0.39266E-02   -0.67928E-02  9512   0.548E-01    0.691E-02
RMM:   2    -0.593819388613E+03   -0.37347E-04   -0.86536E-04 11131   0.754E-02    0.465E-02
RMM:   3    -0.593819497783E+03   -0.10917E-03   -0.27671E-04 11050   0.368E-02    0.834E-02
RMM:   4    -0.593819442722E+03    0.55062E-04   -0.15794E-04 10139   0.353E-02    0.684E-02
RMM:   5    -0.593819389950E+03    0.52772E-04   -0.97234E-05  9351   0.308E-02    0.344E-02
RMM:   6    -0.593819377474E+03    0.12476E-04   -0.35287E-05  9164   0.175E-02    0.123E-02
RMM:   7    -0.593819379645E+03   -0.21705E-05   -0.18311E-05  7697   0.101E-02    0.180E-02
RMM:   8    -0.593819376417E+03    0.32278E-05   -0.59682E-06  6219   0.836E-03    0.800E-03
RMM:   9    -0.593819375903E+03    0.51437E-06   -0.28570E-06  5737   0.516E-03
   2 F= -.59381938E+03 E0= -.59382055E+03  d E =-.395090E-02
 ZBRENT: can't locate minimum, use default step
 trial-energy change:   -0.003951  1 .order   -0.003948   -0.004240   -0.003655
 step:   4.0000(harm=  7.2403)  dis= 0.02537  next Energy=  -593.830776 (dE=-0.154E-01)
 bond charge predicted
       N       E                     dE             d eps       ncg     rms          rms(c)
DAV:   1    -0.593827573427E+03   -0.81970E-02   -0.61271E-01  9112   0.165E+00    0.209E-01
RMM:   2    -0.593827858821E+03   -0.28539E-03   -0.73952E-03 10922   0.226E-01    0.140E-01
RMM:   3    -0.593828922139E+03   -0.10633E-02   -0.25739E-03 10990   0.119E-01    0.264E-01
RMM:   4    -0.593828310518E+03    0.61162E-03   -0.14231E-03 10110   0.108E-01    0.198E-01
RMM:   5    -0.593827879973E+03    0.43054E-03   -0.86149E-04  9345   0.920E-02    0.107E-01
RMM:   6    -0.593827750101E+03    0.12987E-03   -0.31652E-04  9722   0.527E-02    0.312E-02
RMM:   7    -0.593827767698E+03   -0.17597E-04   -0.17069E-04 10810   0.274E-02    0.477E-02
RMM:   8    -0.593827744389E+03    0.23309E-04   -0.51024E-05  8893   0.214E-02    0.229E-02
RMM:   9    -0.593827741716E+03    0.26726E-05   -0.30438E-05  8704   0.119E-02    0.130E-02
RMM:  10    -0.593827740903E+03    0.81333E-06   -0.11389E-05  7105   0.828E-03    0.843E-03
RMM:  11    -0.593827740290E+03    0.61295E-06   -0.42332E-06  6005   0.631E-03
   3 F= -.59382774E+03 E0= -.59382894E+03  d E =-.123153E-01
 curvature:  -2.64 expect dE=-0.870E-02 dE for cont linesearch -0.227E-02
 ZBRENT: increasing intervall
 opt :  10.0000  next Energy=  -593.828708 (dE=-0.133E-01)
 bond charge predicted
       N       E                     dE             d eps       ncg     rms          rms(c)
DAV:   1    -0.593828007204E+03   -0.26630E-03   -0.24543E+00  8680   0.329E+00    0.423E-01
RMM:   2    -0.593829105917E+03   -0.10987E-02   -0.29457E-02 10890   0.447E-01    0.281E-01
RMM:   3    -0.593833217470E+03   -0.41116E-02   -0.10403E-02 11120   0.230E-01    0.507E-01
RMM:   4    -0.593831105596E+03    0.21119E-02   -0.58663E-03 10134   0.216E-01    0.420E-01
RMM:   5    -0.593829158179E+03    0.19474E-02   -0.36433E-03  9391   0.189E-01    0.217E-01
RMM:   6    -0.593828674958E+03    0.48322E-03   -0.13386E-03  9790   0.108E-01    0.839E-02
RMM:   7    -0.593828737555E+03   -0.62596E-04   -0.74608E-04 10687   0.605E-02    0.109E-01
RMM:   8    -0.593828623383E+03    0.11417E-03   -0.24910E-04  9802   0.460E-02    0.507E-02
RMM:   9    -0.593828600441E+03    0.22942E-04   -0.12620E-04 10362   0.263E-02    0.208E-02
RMM:  10    -0.593828600970E+03   -0.52893E-06   -0.52347E-05  9926   0.146E-02    0.172E-02
RMM:  11    -0.593828598269E+03    0.27003E-05   -0.16651E-05  7406   0.103E-02    0.102E-02
RMM:  12    -0.593828598617E+03   -0.34757E-06   -0.83477E-06  6672   0.684E-03
   4 F= -.59382860E+03 E0= -.59382986E+03  d E =-.131736E-01
 curvature:  -1.13 expect dE=-0.203E-01 dE for cont linesearch -0.718E-03
 ZBRENT: bracketing found
 ZBRENT: interpolating
 opt :   7.2237  next Energy=  -593.830880 (dE=-0.155E-01)
 bond charge predicted
       N       E                     dE             d eps       ncg     rms          rms(c)
DAV:   1    -0.593830712735E+03   -0.21145E-02   -0.52661E-01  8800   0.152E+00    0.196E-01
RMM:   2    -0.593830952977E+03   -0.24024E-03   -0.64007E-03 10953   0.211E-01    0.130E-01
RMM:   3    -0.593832060264E+03   -0.11073E-02   -0.22733E-03 11147   0.106E-01    0.258E-01
RMM:   4    -0.593831273683E+03    0.78658E-03   -0.12754E-03 10114   0.102E-01    0.177E-01
RMM:   5    -0.593830949690E+03    0.32399E-03   -0.75317E-04  9384   0.857E-02    0.919E-02
RMM:   6    -0.593830871497E+03    0.78193E-04   -0.28152E-04  9819   0.491E-02    0.429E-02
RMM:   7    -0.593830883395E+03   -0.11898E-04   -0.15865E-04 10504   0.286E-02    0.504E-02
RMM:   8    -0.593830857867E+03    0.25528E-04   -0.51614E-05  9156   0.211E-02    0.228E-02
RMM:   9    -0.593830852884E+03    0.49831E-05   -0.24984E-05  8661   0.118E-02    0.879E-03
RMM:  10    -0.593830853457E+03   -0.57367E-06   -0.95220E-06  7007   0.631E-03
   5 F= -.59383085E+03 E0= -.59383209E+03  d E =-.154285E-01
 curvature:  -3.58 expect dE=-0.305E-01 dE for cont linesearch -0.461E-06
 trial: gam= 2.00397 g(F)=  0.852E-02 g(S)=  0.000E+00 ort = 0.234E-04 (trialstep = 0.371E+00)
 search vector abs. value=  0.256E-01
 bond charge predicted
       N       E                     dE             d eps       ncg     rms          rms(c)
DAV:   1    -0.593833831023E+03   -0.29781E-02   -0.56102E-02  8864   0.496E-01    0.571E-02
RMM:   2    -0.593833879366E+03   -0.48343E-04   -0.62407E-04 11046   0.660E-02    0.364E-02
RMM:   3    -0.593833958275E+03   -0.78910E-04   -0.22373E-04  9500   0.462E-02    0.786E-02
RMM:   4    -0.593833888472E+03    0.69803E-04   -0.82487E-05  8852   0.345E-02    0.234E-02
RMM:   5    -0.593833891390E+03   -0.29180E-05   -0.35205E-05  9510   0.136E-02    0.275E-02
RMM:   6    -0.593833882829E+03    0.85607E-05   -0.14252E-05  7492   0.110E-02    0.128E-02
RMM:   7    -0.593833881504E+03    0.13256E-05   -0.55231E-06  6242   0.777E-03    0.861E-03
RMM:   8    -0.593833880992E+03    0.51168E-06   -0.20374E-06  5570   0.491E-03
   6 F= -.59383388E+03 E0= -.59383512E+03  d E =-.302753E-02
 ZBRENT: can't locate minimum, use default step
 trial-energy change:   -0.003028  1 .order   -0.003024   -0.003180   -0.002869
 step:   1.4847(harm=  3.7896)  dis= 0.02556  next Energy=  -593.847088 (dE=-0.162E-01)
 bond charge predicted
       N       E                     dE             d eps       ncg     rms          rms(c)
DAV:   1    -0.593840691411E+03   -0.68099E-02   -0.50462E-01  8608   0.149E+00    0.171E-01
RMM:   2    -0.593841112358E+03   -0.42095E-03   -0.54163E-03 10990   0.194E-01    0.105E-01
RMM:   3    -0.593841828641E+03   -0.71628E-03   -0.15743E-03 10512   0.103E-01    0.219E-01
RMM:   4    -0.593841250124E+03    0.57852E-03   -0.59896E-04  9638   0.798E-02    0.913E-02
RMM:   5    -0.593841187248E+03    0.62876E-04   -0.35451E-04 10100   0.490E-02    0.670E-02
RMM:   6    -0.593841153885E+03    0.33363E-04   -0.11929E-04  9988   0.306E-02    0.366E-02
RMM:   7    -0.593841149307E+03    0.45787E-05   -0.64619E-05  9177   0.202E-02    0.318E-02
RMM:   8    -0.593841137391E+03    0.11916E-04   -0.20299E-05  7893   0.125E-02    0.769E-03
RMM:   9    -0.593841138783E+03   -0.13923E-05   -0.14671E-05  7373   0.647E-03    0.683E-03
RMM:  10    -0.593841138481E+03    0.30233E-06   -0.38088E-06  5850   0.568E-03
   7 F= -.59384114E+03 E0= -.59384241E+03  d E =-.102850E-01
 curvature:  -3.09 expect dE=-0.988E-02 dE for cont linesearch -0.335E-02
 ZBRENT: increasing intervall
 opt :   3.7119  next Energy=  -593.847383 (dE=-0.165E-01)
 bond charge predicted
       N       E                     dE             d eps       ncg     rms          rms(c)
DAV:   1    -0.593845542966E+03   -0.44042E-02   -0.20074E+00  8480   0.296E+00    0.339E-01
RMM:   2    -0.593847221423E+03   -0.16785E-02   -0.21570E-02 11017   0.383E-01    0.211E-01
RMM:   3    -0.593851643154E+03   -0.44217E-02   -0.71909E-03 10466   0.223E-01    0.526E-01
RMM:   4    -0.593847814660E+03    0.38285E-02   -0.28348E-03  9803   0.169E-01    0.210E-01
RMM:   5    -0.593847412960E+03    0.40170E-03   -0.14747E-03  9265   0.115E-01    0.115E-01
RMM:   6    -0.593847369443E+03    0.43517E-04   -0.62540E-04 10516   0.588E-02    0.845E-02
RMM:   7    -0.593847323961E+03    0.45482E-04   -0.25549E-04  9550   0.437E-02    0.615E-02
RMM:   8    -0.593847284544E+03    0.39417E-04   -0.10874E-04 10198   0.245E-02    0.204E-02
RMM:   9    -0.593847286267E+03   -0.17225E-05   -0.53698E-05  9510   0.139E-02    0.150E-02
RMM:  10    -0.593847285492E+03    0.77481E-06   -0.19209E-05  7968   0.919E-03    0.102E-02
RMM:  11    -0.593847285052E+03    0.43999E-06   -0.66556E-06  6324   0.738E-03
   8 F= -.59384729E+03 E0= -.59384863E+03  d E =-.164316E-01
 curvature:  -5.77 expect dE=-0.809E-02 dE for cont linesearch -0.628E-05
 trial: gam= 0.17582 g(F)=  0.140E-02 g(S)=  0.000E+00 ort = 0.167E-03 (trialstep = 0.104E+01)
 search vector abs. value=  0.225E-02
 bond charge predicted
       N       E                     dE             d eps       ncg     rms          rms(c)
DAV:   1    -0.593848602462E+03   -0.13170E-02   -0.39604E-02  9176   0.417E-01    0.630E-02
RMM:   2    -0.593848630300E+03   -0.27838E-04   -0.60076E-04 10545   0.686E-02    0.469E-02
RMM:   3    -0.593848777412E+03   -0.14711E-03   -0.25356E-04 10973   0.386E-02    0.988E-02
RMM:   4    -0.593848659625E+03    0.11779E-03   -0.15660E-04 10105   0.351E-02    0.537E-02
RMM:   5    -0.593848628109E+03    0.31515E-04   -0.86197E-05  9126   0.297E-02    0.283E-02
RMM:   6    -0.593848618868E+03    0.92413E-05   -0.28047E-05  8826   0.151E-02    0.102E-02
RMM:   7    -0.593848621196E+03   -0.23285E-05   -0.14944E-05  7132   0.877E-03    0.165E-02
RMM:   8    -0.593848618589E+03    0.26076E-05   -0.44542E-06  6004   0.754E-03    0.521E-03
RMM:   9    -0.593848618604E+03   -0.15398E-07   -0.27949E-06  5717   0.444E-03
   9 F= -.59384862E+03 E0= -.59384996E+03  d E =-.133355E-02
 trial-energy change:   -0.001334  1 .order   -0.001325   -0.001487   -0.001163
 step:   3.4855(harm=  4.7813)  dis= 0.01832  next Energy=  -593.850099 (dE=-0.281E-02)
 bond charge predicted
       N       E                     dE             d eps       ncg     rms          rms(c)
DAV:   1    -0.593850420675E+03   -0.18021E-02   -0.21972E-01  8536   0.982E-01    0.149E-01
RMM:   2    -0.593850539146E+03   -0.11847E-03   -0.32039E-03 10714   0.154E-01    0.108E-01
RMM:   3    -0.593851289980E+03   -0.75083E-03   -0.14004E-03 10925   0.931E-02    0.229E-01
RMM:   4    -0.593850715356E+03    0.57462E-03   -0.80237E-04 10065   0.817E-02    0.121E-01
RMM:   5    -0.593850532356E+03    0.18300E-03   -0.40160E-04  9609   0.597E-02    0.718E-02
RMM:   6    -0.593850474375E+03    0.57981E-04   -0.13478E-04  9571   0.343E-02    0.216E-02
RMM:   7    -0.593850485463E+03   -0.11088E-04   -0.80916E-05  9978   0.184E-02    0.360E-02
RMM:   8    -0.593850471888E+03    0.13575E-04   -0.24642E-05  8272   0.141E-02    0.112E-02
RMM:   9    -0.593850471880E+03    0.78799E-08   -0.15756E-05  7655   0.796E-03    0.843E-03
RMM:  10    -0.593850471308E+03    0.57206E-06   -0.43162E-06  6018   0.656E-03
  10 F= -.59385047E+03 E0= -.59385182E+03  d E =-.318626E-02
 curvature:  -3.31 expect dE=-0.156E-02 dE for cont linesearch -0.212E-03
 ZBRENT: increasing intervall
 opt :   8.3779  next Energy=  -593.848705 (dE=-0.142E-02)
 bond charge predicted
       N       E                     dE             d eps       ncg     rms          rms(c)
DAV:   1    -0.593848482772E+03    0.19891E-02   -0.88130E-01  8472   0.197E+00    0.300E-01
RMM:   2    -0.593848966530E+03   -0.48376E-03   -0.12837E-02 10674   0.307E-01    0.219E-01
RMM:   3    -0.593852178404E+03   -0.32119E-02   -0.56703E-03 11179   0.174E-01    0.456E-01
RMM:   4    -0.593849656066E+03    0.25223E-02   -0.35524E-03 10085   0.168E-01    0.254E-01
RMM:   5    -0.593848845140E+03    0.81093E-03   -0.17028E-03  9591   0.125E-01    0.126E-01
RMM:   6    -0.593848678199E+03    0.16694E-03   -0.56098E-04  9803   0.670E-02    0.538E-02
RMM:   7    -0.593848698958E+03   -0.20759E-04   -0.32228E-04 10814   0.362E-02    0.613E-02
RMM:   8    -0.593848660979E+03    0.37980E-04   -0.10362E-04  9994   0.277E-02    0.282E-02
RMM:   9    -0.593848656422E+03    0.45568E-05   -0.57998E-05  9921   0.172E-02    0.167E-02
RMM:  10    -0.593848654621E+03    0.18008E-05   -0.20181E-05  7952   0.102E-02    0.954E-03
RMM:  11    -0.593848655011E+03   -0.38999E-06   -0.74826E-06  6520   0.689E-03
  11 F= -.59384866E+03 E0= -.59385001E+03  d E =-.136996E-02
 curvature:  27.67 expect dE= 0.102E+00 dE for cont linesearch  0.161E-01
 ZBRENT: bracketing found
 ZBRENT: interpolating
 opt :   4.7038  next Energy=  -593.850702 (dE=-0.342E-02)
 bond charge predicted
       N       E                     dE             d eps       ncg     rms          rms(c)
DAV:   1    -0.593850609795E+03   -0.19552E-02   -0.49616E-01  8464   0.148E+00    0.226E-01
RMM:   2    -0.593850895935E+03   -0.28614E-03   -0.72567E-03 10691   0.233E-01    0.165E-01
RMM:   3    -0.593853028251E+03   -0.21323E-02   -0.32631E-03 11109   0.135E-01    0.375E-01
RMM:   4    -0.593851173002E+03    0.18552E-02   -0.20641E-03 10078   0.129E-01    0.171E-01
RMM:   5    -0.593850808900E+03    0.36410E-03   -0.89205E-04  9669   0.895E-02    0.852E-02
RMM:   6    -0.593850725005E+03    0.83895E-04   -0.29916E-04  9818   0.474E-02    0.319E-02
RMM:   7    -0.593850739653E+03   -0.14648E-04   -0.16350E-04 10835   0.257E-02    0.444E-02
RMM:   8    -0.593850720594E+03    0.19058E-04   -0.50566E-05  9178   0.204E-02    0.220E-02
RMM:   9    -0.593850718724E+03    0.18704E-05   -0.30966E-05  8880   0.126E-02    0.142E-02
RMM:  10    -0.593850717319E+03    0.14047E-05   -0.10696E-05  6858   0.818E-03    0.777E-03
RMM:  11    -0.593850717119E+03    0.20009E-06   -0.42780E-06  5998   0.627E-03
  12 F= -.59385072E+03 E0= -.59385207E+03  d E =-.343207E-02
 curvature:  -0.40 expect dE=-0.297E-03 dE for cont linesearch -0.552E-07
 trial: gam= 0.57737 g(F)=  0.747E-03 g(S)=  0.000E+00 ort = 0.177E-04 (trialstep = 0.177E+01)
 search vector abs. value=  0.152E-02
 bond charge predicted
       N       E                     dE             d eps       ncg     rms          rms(c)
DAV:   1    -0.593851579977E+03   -0.86266E-03   -0.76602E-02  8576   0.587E-01    0.908E-02
RMM:   2    -0.593851663872E+03   -0.83895E-04   -0.10564E-03 10873   0.876E-02    0.680E-02
RMM:   3    -0.593852024453E+03   -0.36058E-03   -0.44651E-04 10750   0.533E-02    0.155E-01
RMM:   4    -0.593851696409E+03    0.32804E-03   -0.32654E-04  9773   0.547E-02    0.633E-02
RMM:   5    -0.593851647134E+03    0.49275E-04   -0.12036E-04  9517   0.355E-02    0.324E-02
RMM:   6    -0.593851637143E+03    0.99907E-05   -0.43842E-05  9480   0.182E-02    0.154E-02
RMM:   7    -0.593851636335E+03    0.80784E-06   -0.19677E-05  7790   0.104E-02    0.104E-02
RMM:   8    -0.593851634947E+03    0.13880E-05   -0.48152E-06  6093   0.620E-03    0.432E-03
RMM:   9    -0.593851635018E+03   -0.70719E-07   -0.21403E-06  5560   0.462E-03
  13 F= -.59385164E+03 E0= -.59385299E+03  d E =-.917899E-03
 trial-energy change:   -0.000918  1 .order   -0.000915   -0.001341   -0.000488
 step:   2.7852(harm=  2.7852)  dis= 0.01282  next Energy=  -593.851771 (dE=-0.105E-02)
 bond charge predicted
       N       E                     dE             d eps       ncg     rms          rms(c)
DAV:   1    -0.593851760507E+03   -0.12556E-03   -0.25089E-02  8784   0.336E-01    0.518E-02
RMM:   2    -0.593851789337E+03   -0.28830E-04   -0.36287E-04 10885   0.514E-02    0.403E-02
RMM:   3    -0.593851890067E+03   -0.10073E-03   -0.14899E-04 10364   0.331E-02    0.862E-02
RMM:   4    -0.593851807244E+03    0.82823E-04   -0.10230E-04  9830   0.306E-02    0.449E-02
RMM:   5    -0.593851790736E+03    0.16507E-04   -0.55642E-05  8747   0.254E-02    0.307E-02
RMM:   6    -0.593851782924E+03    0.78121E-05   -0.20088E-05  8233   0.127E-02    0.138E-02
RMM:   7    -0.593851781036E+03    0.18881E-05   -0.74808E-06  6502   0.776E-03    0.664E-03
RMM:   8    -0.593851781003E+03    0.33144E-07   -0.29491E-06  5738   0.547E-03
  14 F= -.59385178E+03 E0= -.59385314E+03  d E =-.106388E-02
 curvature:  -2.79 expect dE=-0.130E-03 dE for cont linesearch -0.843E-08
 trial: gam= 0.06099 g(F)=  0.466E-04 g(S)=  0.000E+00 ort = 0.214E-05 (trialstep = 0.197E+01)
 search vector abs. value=  0.525E-04
 bond charge predicted
       N       E                     dE             d eps       ncg     rms          rms(c)
DAV:   1    -0.593851849030E+03   -0.67994E-04   -0.33708E-03  9128   0.121E-01    0.176E-02
RMM:   2    -0.593851851803E+03   -0.27726E-05   -0.59530E-05 10142   0.214E-02    0.137E-02
RMM:   3    -0.593851858661E+03   -0.68586E-05   -0.19901E-05  8377   0.138E-02    0.250E-02
RMM:   4    -0.593851855096E+03    0.35651E-05   -0.11524E-05  7550   0.104E-02    0.193E-02
RMM:   5    -0.593851850707E+03    0.43889E-05   -0.59675E-06  6246   0.867E-03    0.876E-03
RMM:   6    -0.593851850460E+03    0.24725E-06   -0.26130E-06  5709   0.570E-03
  15 F= -.59385185E+03 E0= -.59385322E+03  d E =-.694569E-04
 trial-energy change:   -0.000069  1 .order   -0.000069   -0.000092   -0.000045
 step:   3.8796(harm=  3.8796)  dis= 0.00430  next Energy=  -593.851872 (dE=-0.906E-04)
 reached required accuracy - stopping structural energy minimisation
 augmentation electrons   31.506555810343297     
 soft         electrons   253.58623193663743     
 augmentation electrons   31.506555810343297     
 soft         electrons   253.58623193663743     
 augmentation electrons   31.506555810343297     
 soft         electrons   253.58623193663743     
 augmentation electrons   31.506555810343297     
 soft         electrons   253.58623193663743     
 augmentation electrons   31.506555810343297     
 soft         electrons   253.58623193663743     
 augmentation electrons   31.506555810343297     
 soft         electrons   253.58623193663743     
 augmentation electrons   31.506555810343297     
 soft         electrons   253.58623193663743     
 augmentation electrons   31.506555810343297     
 soft         electrons   253.58623193663743     
 augmentation electrons   31.506555810343297     
 soft         electrons   253.58623193663743     
 augmentation electrons   31.506555810343297     
 soft         electrons   253.58623193663743     
 augmentation electrons   31.506555810343297     
 soft         electrons   253.58623193663743     
 augmentation electrons   31.506555810343297     
 soft         electrons   253.58623193663743     
 augmentation electrons   31.506555810343297     
 soft         electrons   253.58623193663743     
 augmentation electrons   31.506555810343297     
 soft         electrons   253.58623193663743     
 augmentation electrons   31.506555810343297     
 soft         electrons   253.58623193663743     
 augmentation electrons   31.506555810343297     
 soft         electrons   253.58623193663743     
 augmentation electrons   31.506555810343297     
 soft         electrons   253.58623193663743     
 augmentation electrons   31.506555810343297     
 soft         electrons   253.58623193663743     
 augmentation electrons   31.506555810343297     
 soft         electrons   253.58623193663743     
 augmentation electrons   31.506555810343297     
 soft         electrons   253.58623193663743     
 augmentation electrons   31.506555810343297     
 soft         electrons   253.58623193663743     
 augmentation electrons   31.506555810343297     
 soft         electrons   253.58623193663743     
 augmentation electrons   31.506555810343297     
 soft         electrons   253.58623193663743     
 augmentation electrons   31.506555810343297     
 soft         electrons   253.58623193663743     
 augmentation electrons   31.506555810343297     
 soft         electrons   253.58623193663743     
 augmentation electrons   31.506555810343297     
 soft         electrons   253.58623193663743     
 augmentation electrons   31.506555810343297     
 soft         electrons   253.58623193663743     
 augmentation electrons   31.506555810343297     
 soft         electrons   253.58623193663743     
 augmentation electrons   31.506555810343297     
 soft         electrons   253.58623193663743     
 augmentation electrons   31.506555810343297     
 soft         electrons   253.58623193663743     
 augmentation electrons   31.506555810343297     
 soft         electrons   253.58623193663743     
 augmentation electrons   31.506555810343297     
 soft         electrons   253.58623193663743     
 augmentation electrons   31.506555810343297     
 soft         electrons   253.58623193663743     
 augmentation electrons   31.506555810343297     
 soft         electrons   253.58623193663743     
 augmentation electrons   31.506555810343297     
 soft         electrons   253.58623193663743     
 augmentation electrons   31.506555810343297     
 soft         electrons   253.58623193663743     
 augmentation electrons   31.506555810343297     
 soft         electrons   253.58623193663743     
 augmentation electrons   31.506555810343297     
 soft         electrons   253.58623193663743     
 augmentation electrons   31.506555810343297     
 soft         electrons   253.58623193663743     
 augmentation electrons   31.506555810343297     
 soft         electrons   253.58623193663743     
 augmentation electrons   31.506555810343297     
 soft         electrons   253.58623193663743     
 augmentation electrons   31.506555810343297     
 soft         electrons   253.58623193663743     
 augmentation electrons   31.506555810343297     
 soft         electrons   253.58623193663743     
 augmentation electrons   31.506555810343297     
 soft         electrons   253.58623193663743     
 augmentation electrons   31.506555810343297     
 soft         electrons   253.58623193663743     
 augmentation electrons   31.506555810343297     
 soft         electrons   253.58623193663743     
 augmentation electrons   31.506555810343297     
 soft         electrons   253.58623193663743     
 augmentation electrons   31.506555810343297     
 soft         electrons   253.58623193663743     
 augmentation electrons   31.506555810343297     
 soft         electrons   253.58623193663743     
 augmentation electrons   31.506555810343297     
 soft         electrons   253.58623193663743     
 augmentation electrons   31.506555810343297     
 soft         electrons   253.58623193663743     
 augmentation electrons   31.506555810343297     
 soft         electrons   253.58623193663743     
 augmentation electrons   31.506555810343297     
 soft         electrons   253.58623193663743     
 augmentation electrons   31.506555810343297     
 soft         electrons   253.58623193663743     
 augmentation electrons   31.506555810343297     
 soft         electrons   253.58623193663743     
 augmentation electrons   31.506555810343297     
 soft         electrons   253.58623193663743     
 augmentation electrons   31.506555810343297     
 soft         electrons   253.58623193663743     
 augmentation electrons   31.506555810343297     
 soft         electrons   253.58623193663743     
 augmentation electrons   31.506555810343297     
 soft         electrons   253.58623193663743     
 augmentation electrons   31.506555810343297     
 soft         electrons   253.58623193663743     
 augmentation electrons   31.506555810343297     
 soft         electrons   253.58623193663743     
 augmentation electrons   31.506555810343297     
 soft         electrons   253.58623193663743     
 augmentation electrons   31.506555810343297     
 soft         electrons   253.58623193663743     
 augmentation electrons   31.506555810343297     
 soft         electrons   253.58623193663743     
 augmentation electrons   31.506555810343297     
 soft         electrons   253.58623193663743     
 augmentation electrons   31.506555810343297     
 soft         electrons   253.58623193663743     
 augmentation electrons   31.506555810343297     
 soft         electrons   253.58623193663743     
 augmentation electrons   31.506555810343297     
 soft         electrons   253.58623193663743     
 augmentation electrons   31.506555810343297     
 soft         electrons   253.58623193663743     
 augmentation electrons   31.506555810343297     
 soft         electrons   253.58623193663743     
 augmentation electrons   31.506555810343297     
 soft         electrons   253.58623193663743     
 augmentation electrons   31.506555810343297     
 soft         electrons   253.58623193663743     
 total        electrons   285.09278774698072     
 total        electrons   285.09278774698072     
 total        electrons   285.09278774698072     
 total        electrons   285.09278774698072     
 total        electrons   285.09278774698072     
 total        electrons   285.09278774698072     
 total        electrons   285.09278774698072     
 total        electrons   285.09278774698072     
 total        electrons   285.09278774698072     
 total        electrons   285.09278774698072     
 total        electrons   285.09278774698072     
 total        electrons   285.09278774698072     
 total        electrons   285.09278774698072     
 total        electrons   285.09278774698072     
 total        electrons   285.09278774698072     
 total        electrons   285.09278774698072     
 total        electrons   285.09278774698072     
 total        electrons   285.09278774698072     
 total        electrons   285.09278774698072     
 total        electrons   285.09278774698072     
 total        electrons   285.09278774698072     
 total        electrons   285.09278774698072     
 total        electrons   285.09278774698072     
 total        electrons   285.09278774698072     
 total        electrons   285.09278774698072     
 total        electrons   285.09278774698072     
 total        electrons   285.09278774698072     
 total        electrons   285.09278774698072     
 total        electrons   285.09278774698072     
 total        electrons   285.09278774698072     
 total        electrons   285.09278774698072     
 total        electrons   285.09278774698072     
 total        electrons   285.09278774698072     
 total        electrons   285.09278774698072     
 total        electrons   285.09278774698072     
 total        electrons   285.09278774698072     
 total        electrons   285.09278774698072     
 total        electrons   285.09278774698072     
 total        electrons   285.09278774698072     
 total        electrons   285.09278774698072     
 total        electrons   285.09278774698072     
 total        electrons   285.09278774698072     
 total        electrons   285.09278774698072     
 total        electrons   285.09278774698072     
 total        electrons   285.09278774698072     
 total        electrons   285.09278774698072     
 total        electrons   285.09278774698072     
 total        electrons   285.09278774698072     
 total        electrons   285.09278774698072     
 total        electrons   285.09278774698072     
 total        electrons   285.09278774698072     
 total        electrons   285.09278774698072     
 total        electrons   285.09278774698072     
 total        electrons   285.09278774698072     
 total        electrons   285.09278774698072     
 total        electrons   285.09278774698072     
 total        electrons   285.09278774698072     
 total        electrons   285.09278774698072     
 total        electrons   285.09278774698072     
 total        electrons   285.09278774698072     
 total        electrons   285.09278774698072     
 total        electrons   285.09278774698072     
 total        electrons   285.09278774698072     
 total        electrons   285.09278774698072     
 total        electrons   285.09278774698072     
 total        electrons   285.09278774698072     
 total        electrons   285.09278774698072     
 total        electrons   285.09278774698072     
 total        electrons   285.09278774698072     
 total        electrons   285.09278774698072     
 total        electrons   285.09278774698072     
 total        electrons   285.09278774698072     
Note: The following floating-point exceptions are signalling: IEEE_OVERFLOW_FLAG
Note: The following floating-point exceptions are signalling: IEEE_OVERFLOW_FLAG
Note: The following floating-point exceptions are signalling: IEEE_OVERFLOW_FLAG
Note: The following floating-point exceptions are signalling: IEEE_OVERFLOW_FLAG
Note: The following floating-point exceptions are signalling: IEEE_OVERFLOW_FLAG
Note: The following floating-point exceptions are signalling: IEEE_OVERFLOW_FLAG
Note: The following floating-point exceptions are signalling: IEEE_OVERFLOW_FLAG
Note: The following floating-point exceptions are signalling: IEEE_OVERFLOW_FLAG
Note: The following floating-point exceptions are signalling: IEEE_OVERFLOW_FLAG
Note: The following floating-point exceptions are signalling: IEEE_OVERFLOW_FLAG
Note: The following floating-point exceptions are signalling: IEEE_OVERFLOW_FLAG
Note: The following floating-point exceptions are signalling: IEEE_OVERFLOW_FLAG
Note: The following floating-point exceptions are signalling: IEEE_OVERFLOW_FLAG
Note: The following floating-point exceptions are signalling: IEEE_OVERFLOW_FLAG
Note: The following floating-point exceptions are signalling: IEEE_OVERFLOW_FLAG
Note: The following floating-point exceptions are signalling: IEEE_OVERFLOW_FLAG
Note: The following floating-point exceptions are signalling: IEEE_OVERFLOW_FLAG
Note: The following floating-point exceptions are signalling: IEEE_OVERFLOW_FLAG
Note: The following floating-point exceptions are signalling: IEEE_OVERFLOW_FLAG
Note: The following floating-point exceptions are signalling: IEEE_OVERFLOW_FLAG
Note: The following floating-point exceptions are signalling: IEEE_OVERFLOW_FLAG
Note: The following floating-point exceptions are signalling: IEEE_OVERFLOW_FLAG
Note: The following floating-point exceptions are signalling: IEEE_OVERFLOW_FLAG
Note: The following floating-point exceptions are signalling: IEEE_OVERFLOW_FLAG
Note: The following floating-point exceptions are signalling: IEEE_OVERFLOW_FLAG
Note: The following floating-point exceptions are signalling: IEEE_OVERFLOW_FLAG
Note: The following floating-point exceptions are signalling: IEEE_OVERFLOW_FLAG
Note: The following floating-point exceptions are signalling: IEEE_OVERFLOW_FLAG
Note: The following floating-point exceptions are signalling: IEEE_OVERFLOW_FLAG
Note: The following floating-point exceptions are signalling: IEEE_OVERFLOW_FLAG
Note: The following floating-point exceptions are signalling: IEEE_OVERFLOW_FLAG
Note: The following floating-point exceptions are signalling: IEEE_OVERFLOW_FLAG
Note: The following floating-point exceptions are signalling: IEEE_OVERFLOW_FLAG
Note: The following floating-point exceptions are signalling: IEEE_OVERFLOW_FLAG
Note: The following floating-point exceptions are signalling: IEEE_OVERFLOW_FLAG
Note: The following floating-point exceptions are signalling: IEEE_OVERFLOW_FLAG
Note: The following floating-point exceptions are signalling: IEEE_OVERFLOW_FLAG
Note: The following floating-point exceptions are signalling: IEEE_OVERFLOW_FLAG
Note: The following floating-point exceptions are signalling: IEEE_OVERFLOW_FLAG
Note: The following floating-point exceptions are signalling: IEEE_OVERFLOW_FLAG
Note: The following floating-point exceptions are signalling: IEEE_OVERFLOW_FLAG
Note: The following floating-point exceptions are signalling: IEEE_OVERFLOW_FLAG
Note: The following floating-point exceptions are signalling: IEEE_OVERFLOW_FLAG
Note: The following floating-point exceptions are signalling: IEEE_OVERFLOW_FLAG
Note: The following floating-point exceptions are signalling: IEEE_OVERFLOW_FLAG
Note: The following floating-point exceptions are signalling: IEEE_OVERFLOW_FLAG
Note: The following floating-point exceptions are signalling: IEEE_OVERFLOW_FLAG
Note: The following floating-point exceptions are signalling: IEEE_OVERFLOW_FLAG
Note: The following floating-point exceptions are signalling: IEEE_OVERFLOW_FLAG
Note: The following floating-point exceptions are signalling: IEEE_OVERFLOW_FLAG
Note: The following floating-point exceptions are signalling: IEEE_OVERFLOW_FLAG
Note: The following floating-point exceptions are signalling: IEEE_OVERFLOW_FLAG
Note: The following floating-point exceptions are signalling: IEEE_OVERFLOW_FLAG
Note: The following floating-point exceptions are signalling: IEEE_OVERFLOW_FLAG
Note: The following floating-point exceptions are signalling: IEEE_OVERFLOW_FLAG
Note: The following floating-point exceptions are signalling: IEEE_OVERFLOW_FLAG
Note: The following floating-point exceptions are signalling: IEEE_OVERFLOW_FLAG
Note: The following floating-point exceptions are signalling: IEEE_OVERFLOW_FLAG
Note: The following floating-point exceptions are signalling: IEEE_OVERFLOW_FLAG
Note: The following floating-point exceptions are signalling: IEEE_OVERFLOW_FLAG
Note: The following floating-point exceptions are signalling: IEEE_OVERFLOW_FLAG
Note: The following floating-point exceptions are signalling: IEEE_OVERFLOW_FLAG
Note: The following floating-point exceptions are signalling: IEEE_OVERFLOW_FLAG
Note: The following floating-point exceptions are signalling: IEEE_OVERFLOW_FLAG
Note: The following floating-point exceptions are signalling: IEEE_OVERFLOW_FLAG
Note: The following floating-point exceptions are signalling: IEEE_OVERFLOW_FLAG
Note: The following floating-point exceptions are signalling: IEEE_OVERFLOW_FLAG
Note: The following floating-point exceptions are signalling: IEEE_OVERFLOW_FLAG
Note: The following floating-point exceptions are signalling: IEEE_OVERFLOW_FLAG
Note: The following floating-point exceptions are signalling: IEEE_OVERFLOW_FLAG
Note: The following floating-point exceptions are signalling: IEEE_OVERFLOW_FLAG
Note: The following floating-point exceptions are signalling: IEEE_OVERFLOW_FLAG
