   56   56   85    1
  0.1269428E+02  0.6078000E-09  0.6078000E-09  0.2222000E-08  0.5000000E-15
   1.0000000000000000E-004
  CAR 
 Name                                    
    200     41    132

  0.3742002E-15  0.3742002E-15  0.1262379E-14  0.1234568E-01
    1      -11.178554   1.000000
    2      -10.594431   1.000000
    3       -9.799476   1.000000
    4       -8.838792   1.000000
    5       -8.287228   1.000000
    6       -8.195602   1.000000
    7       -7.819854   1.000000
    8       -7.690790   1.000000
    9       -7.413778   1.000000
   10       -7.400579   1.000000
   11       -7.383348   1.000000
   12       -7.303763   1.000000
   13       -7.289705   1.000000
   14       -7.238320   1.000000
   15       -7.049557   1.000000
   16       -7.036718   1.000000
   17       -6.962224   1.000000
   18       -6.811126   1.000000
   19       -6.736961   1.000000
   20       -6.616817   1.000000
   21       -6.461925   1.000000
   22       -5.980463   1.000000
   23       -5.768161   1.000000
   24       -5.706350   1.000000
   25       -5.682443   1.000000
   26       -5.535262   1.000000
   27       -5.445588   1.000000
   28       -5.370527   1.000000
   29       -5.367978   1.000000
   30       -5.138552   1.000000
   31       -4.776387   1.000000
   32       -4.324848   1.000000
   33       -4.175122   1.000000
   34       -4.149364   1.000000
   35       -4.134501   1.000000
   36       -4.004695   1.000000
   37       -3.652225   1.000000
   38       -3.161169   1.000000
   39       -2.888590   1.000000
   40       -2.782410   1.000000
   41       -2.627852   1.000000
   42       -2.428991   1.000000
   43       -2.373974   1.000000
   44       -2.195834   1.000000
   45       -2.141936   1.000000
   46       -2.096511   1.000000
   47       -2.064489   1.000000
   48       -2.006157   1.000000
   49       -1.685449   1.000000
   50       -1.670762   1.000000
   51       -1.654049   1.000000
   52       -1.537206   1.000000
   53       -1.525573   1.000000
   54       -1.405444   1.000000
   55       -1.390488   1.000000
   56       -1.282077   1.000000
   57       -1.277174   1.000000
   58       -1.194753   1.000000
   59       -1.082553   1.000000
   60       -1.069384   1.000000
   61       -1.008250   1.000000
   62       -1.000575   1.000000
   63       -0.838642   1.000000
   64       -0.705419   1.000000
   65       -0.689240   1.000000
   66       -0.683779   1.000000
   67       -0.619527   1.000000
   68       -0.487529   1.000000
   69       -0.451788   1.000000
   70       -0.371170   1.000000
   71       -0.337618   1.000000
   72       -0.281834   1.000000
   73       -0.180173   1.000000
   74        0.059286   1.000000
   75        0.118774   1.000000
   76        0.167356   1.000000
   77        0.278267   1.000000
   78        0.378208   1.000000
   79        0.484536   1.000000
   80        0.623485   1.000000
   81        0.650923   1.000000
   82        0.904216   1.000000
   83        1.076519   1.000000
   84        1.354074   1.000000
   85        1.358500   1.000000
   86        1.544503   1.000000
   87        1.660100   1.000000
   88        1.692128   1.000000
   89        1.780424   1.000000
   90        1.893665   1.000000
   91        1.947622   1.000000
   92        1.967780   1.000000
   93        1.979931   1.000000
   94        2.058305   1.000000
   95        2.103348   1.000000
   96        2.158520   1.000001
   97        2.407410   1.000946
   98        2.434980   1.001737
   99        2.996607   0.188906
  100        3.069027   0.019960
  101        3.118981  -0.026426
  102        3.265797  -0.016544
  103        3.339909  -0.005367
  104        3.454543  -0.000473
  105        3.551214  -0.000034
  106        3.617968  -0.000004
  107        3.654292  -0.000001
  108        3.844571  -0.000000
  109        3.892745  -0.000000
  110        3.926259  -0.000000
  111        3.946831  -0.000000
  112        3.998814  -0.000000
  113        4.013719  -0.000000
  114        4.055868  -0.000000
  115        4.130971  -0.000000
  116        4.143615  -0.000000
  117        4.145576  -0.000000
  118        4.213773  -0.000000
  119        4.303143  -0.000000
  120        4.338601  -0.000000
  121        4.371704  -0.000000
  122        4.416333  -0.000000
  123        4.468737  -0.000000
  124        4.492946  -0.000000
  125        4.516567  -0.000000
  126        4.629438  -0.000000
  127        4.666660  -0.000000
  128        4.720845  -0.000000
  129        4.960340  -0.000000
  130        5.090752  -0.000000
  131        5.326190  -0.000000
  132        5.717062  -0.000000

  0.1111111E+00  0.3756941E-15  0.1262379E-14  0.2469136E-01
    1      -11.121260   1.000000
    2      -10.542089   1.000000
    3       -9.757710   1.000000
    4       -8.802867   1.000000
    5       -8.257059   1.000000
    6       -8.215874   1.000000
    7       -7.965639   1.000000
    8       -7.957813   1.000000
    9       -7.700522   1.000000
   10       -7.542679   1.000000
   11       -7.517504   1.000000
   12       -7.503421   1.000000
   13       -7.455023   1.000000
   14       -7.439737   1.000000
   15       -6.947797   1.000000
   16       -6.818077   1.000000
   17       -6.755769   1.000000
   18       -6.565900   1.000000
   19       -6.524378   1.000000
   20       -6.399314   1.000000
   21       -6.239456   1.000000
   22       -5.988115   1.000000
   23       -5.867461   1.000000
   24       -5.708435   1.000000
   25       -5.598041   1.000000
   26       -5.490995   1.000000
   27       -5.426576   1.000000
   28       -5.411960   1.000000
   29       -5.243697   1.000000
   30       -5.063381   1.000000
   31       -4.705664   1.000000
   32       -4.171270   1.000000
   33       -4.116311   1.000000
   34       -4.053492   1.000000
   35       -3.964341   1.000000
   36       -3.861158   1.000000
   37       -3.588106   1.000000
   38       -3.143629   1.000000
   39       -2.906482   1.000000
   40       -2.817611   1.000000
   41       -2.610045   1.000000
   42       -2.524239   1.000000
   43       -2.366884   1.000000
   44       -2.309360   1.000000
   45       -2.214033   1.000000
   46       -2.160802   1.000000
   47       -2.078586   1.000000
   48       -2.036359   1.000000
   49       -1.855723   1.000000
   50       -1.710239   1.000000
   51       -1.641616   1.000000
   52       -1.594069   1.000000
   53       -1.544451   1.000000
   54       -1.446677   1.000000
   55       -1.368835   1.000000
   56       -1.288008   1.000000
   57       -1.260530   1.000000
   58       -1.208906   1.000000
   59       -1.099122   1.000000
   60       -1.039678   1.000000
   61       -1.013330   1.000000
   62       -0.985265   1.000000
   63       -0.922070   1.000000
   64       -0.785035   1.000000
   65       -0.734314   1.000000
   66       -0.724459   1.000000
   67       -0.657303   1.000000
   68       -0.527017   1.000000
   69       -0.460505   1.000000
   70       -0.368633   1.000000
   71       -0.339400   1.000000
   72       -0.260487   1.000000
   73       -0.154346   1.000000
   74       -0.099214   1.000000
   75        0.027849   1.000000
   76        0.176862   1.000000
   77        0.267387   1.000000
   78        0.276183   1.000000
   79        0.484564   1.000000
   80        0.546561   1.000000
   81        0.669996   1.000000
   82        0.704343   1.000000
   83        1.046604   1.000000
   84        1.290670   1.000000
   85        1.378773   1.000000
   86        1.421421   1.000000
   87        1.497231   1.000000
   88        1.581312   1.000000
   89        1.737191   1.000000
   90        1.788714   1.000000
   91        1.877739   1.000000
   92        1.916198   1.000000
   93        1.934430   1.000000
   94        1.996530   1.000000
   95        2.157269   1.000001
   96        2.255139   1.000015
   97        2.506170   1.006756
   98        2.712090   1.027211
   99        2.988020   0.217335
  100        3.025391   0.106157
  101        3.150073  -0.034932
  102        3.218177  -0.027248
  103        3.302815  -0.009891
  104        3.412603  -0.001259
  105        3.609511  -0.000005
  106        3.669968  -0.000001
  107        3.793322  -0.000000
  108        3.860331  -0.000000
  109        3.891605  -0.000000
  110        3.908004  -0.000000
  111        3.933397  -0.000000
  112        3.985810  -0.000000
  113        4.013403  -0.000000
  114        4.043110  -0.000000
  115        4.124239  -0.000000
  116        4.131440  -0.000000
  117        4.159939  -0.000000
  118        4.192333  -0.000000
  119        4.248595  -0.000000
  120        4.317592  -0.000000
  121        4.333739  -0.000000
  122        4.358252  -0.000000
  123        4.409139  -0.000000
  124        4.449534  -0.000000
  125        4.489651  -0.000000
  126        4.541467  -0.000000
  127        4.633544  -0.000000
  128        4.675104  -0.000000
  129        4.860520  -0.000000
  130        4.986149  -0.000000
  131        5.228557  -0.000000
  132        5.315595  -0.000000

  0.2222222E+00  0.3503827E-15  0.1262379E-14  0.2469136E-01
    1      -10.951342   1.000000
    2      -10.387408   1.000000
    3       -9.635687   1.000000
    4       -8.703570   1.000000
    5       -8.614610   1.000000
    6       -8.387267   1.000000
    7       -8.328998   1.000000
    8       -8.134561   1.000000
    9       -7.783593   1.000000
   10       -7.777483   1.000000
   11       -7.724624   1.000000
   12       -7.703833   1.000000
   13       -7.644720   1.000000
   14       -7.595715   1.000000
   15       -7.224609   1.000000
   16       -6.595702   1.000000
   17       -6.470322   1.000000
   18       -6.342112   1.000000
   19       -6.307422   1.000000
   20       -6.245793   1.000000
   21       -5.952175   1.000000
   22       -5.933081   1.000000
   23       -5.608476   1.000000
   24       -5.545901   1.000000
   25       -5.499007   1.000000
   26       -5.368586   1.000000
   27       -5.276751   1.000000
   28       -5.233155   1.000000
   29       -4.849336   1.000000
   30       -4.840510   1.000000
   31       -4.510722   1.000000
   32       -3.999257   1.000000
   33       -3.941231   1.000000
   34       -3.890331   1.000000
   35       -3.563058   1.000000
   36       -3.478754   1.000000
   37       -3.312969   1.000000
   38       -3.114115   1.000000
   39       -2.957120   1.000000
   40       -2.942797   1.000000
   41       -2.854500   1.000000
   42       -2.788510   1.000000
   43       -2.651446   1.000000
   44       -2.423684   1.000000
   45       -2.314776   1.000000
   46       -2.235761   1.000000
   47       -2.144821   1.000000
   48       -2.002211   1.000000
   49       -1.967798   1.000000
   50       -1.798353   1.000000
   51       -1.703518   1.000000
   52       -1.615680   1.000000
   53       -1.575466   1.000000
   54       -1.540932   1.000000
   55       -1.474472   1.000000
   56       -1.437108   1.000000
   57       -1.388329   1.000000
   58       -1.214038   1.000000
   59       -1.144597   1.000000
   60       -1.099785   1.000000
   61       -1.060280   1.000000
   62       -1.006222   1.000000
   63       -0.953735   1.000000
   64       -0.915548   1.000000
   65       -0.884438   1.000000
   66       -0.811901   1.000000
   67       -0.702532   1.000000
   68       -0.662669   1.000000
   69       -0.532885   1.000000
   70       -0.503890   1.000000
   71       -0.447302   1.000000
   72       -0.315825   1.000000
   73       -0.268842   1.000000
   74       -0.136227   1.000000
   75       -0.075665   1.000000
   76       -0.012982   1.000000
   77        0.034916   1.000000
   78        0.351270   1.000000
   79        0.389689   1.000000
   80        0.538147   1.000000
   81        0.655130   1.000000
   82        0.728619   1.000000
   83        0.829156   1.000000
   84        1.062826   1.000000
   85        1.204108   1.000000
   86        1.228211   1.000000
   87        1.389134   1.000000
   88        1.497400   1.000000
   89        1.679960   1.000000
   90        1.694669   1.000000
   91        1.704874   1.000000
   92        1.856996   1.000000
   93        1.878346   1.000000
   94        1.930114   1.000000
   95        2.157414   1.000001
   96        2.300333   1.000059
   97        2.375383   1.000442
   98        2.779057   0.955107
   99        2.955482   0.337985
  100        3.088217  -0.003682
  101        3.186362  -0.033433
  102        3.383962  -0.002316
  103        3.436702  -0.000727
  104        3.529215  -0.000065
  105        3.597506  -0.000008
  106        3.638323  -0.000002
  107        3.715147  -0.000000
  108        3.738876  -0.000000
  109        3.770789  -0.000000
  110        3.816643  -0.000000
  111        3.888362  -0.000000
  112        3.941501  -0.000000
  113        3.993516  -0.000000
  114        4.021816  -0.000000
  115        4.070344  -0.000000
  116        4.088176  -0.000000
  117        4.152986  -0.000000
  118        4.204249  -0.000000
  119        4.226002  -0.000000
  120        4.252856  -0.000000
  121        4.314638  -0.000000
  122        4.353246  -0.000000
  123        4.416126  -0.000000
  124        4.438775  -0.000000
  125        4.486538  -0.000000
  126        4.603210  -0.000000
  127        4.663600  -0.000000
  128        4.718467  -0.000000
  129        4.751575  -0.000000
  130        5.003199  -0.000000
  131        5.120658  -0.000000
  132        5.280963  -0.000000

  0.3333333E+00  0.3779629E-15  0.1262379E-14  0.2469136E-01
    1      -10.675366   1.000000
    2      -10.138024   1.000000
    3       -9.444204   1.000000
    4       -9.238878   1.000000
    5       -8.879254   1.000000
    6       -8.564612   1.000000
    7       -8.518665   1.000000
    8       -7.972001   1.000000
    9       -7.934572   1.000000
   10       -7.894404   1.000000
   11       -7.879179   1.000000
   12       -7.810032   1.000000
   13       -7.743075   1.000000
   14       -7.642185   1.000000
   15       -7.568783   1.000000
   16       -6.962565   1.000000
   17       -6.420982   1.000000
   18       -6.188550   1.000000
   19       -6.077035   1.000000
   20       -6.061277   1.000000
   21       -5.678150   1.000000
   22       -5.645319   1.000000
   23       -5.465533   1.000000
   24       -5.401725   1.000000
   25       -5.367937   1.000000
   26       -5.196488   1.000000
   27       -4.732218   1.000000
   28       -4.624868   1.000000
   29       -4.516006   1.000000
   30       -4.290907   1.000000
   31       -4.218460   1.000000
   32       -3.797961   1.000000
   33       -3.692675   1.000000
   34       -3.623649   1.000000
   35       -3.392703   1.000000
   36       -3.351787   1.000000
   37       -3.272559   1.000000
   38       -3.235060   1.000000
   39       -3.184877   1.000000
   40       -3.163684   1.000000
   41       -3.107974   1.000000
   42       -3.000124   1.000000
   43       -2.711609   1.000000
   44       -2.384194   1.000000
   45       -2.318389   1.000000
   46       -2.282973   1.000000
   47       -2.188427   1.000000
   48       -2.152046   1.000000
   49       -2.057522   1.000000
   50       -1.892075   1.000000
   51       -1.850223   1.000000
   52       -1.764616   1.000000
   53       -1.717390   1.000000
   54       -1.674470   1.000000
   55       -1.579167   1.000000
   56       -1.536110   1.000000
   57       -1.482540   1.000000
   58       -1.386292   1.000000
   59       -1.258008   1.000000
   60       -1.252619   1.000000
   61       -1.180226   1.000000
   62       -1.135157   1.000000
   63       -1.085768   1.000000
   64       -1.022709   1.000000
   65       -0.968065   1.000000
   66       -0.935367   1.000000
   67       -0.819712   1.000000
   68       -0.749849   1.000000
   69       -0.665643   1.000000
   70       -0.597084   1.000000
   71       -0.476332   1.000000
   72       -0.338533   1.000000
   73       -0.287637   1.000000
   74       -0.216112   1.000000
   75       -0.210314   1.000000
   76       -0.057652   1.000000
   77       -0.026816   1.000000
   78        0.113138   1.000000
   79        0.319156   1.000000
   80        0.456438   1.000000
   81        0.525879   1.000000
   82        0.788048   1.000000
   83        0.798487   1.000000
   84        0.935596   1.000000
   85        1.162958   1.000000
   86        1.263365   1.000000
   87        1.279992   1.000000
   88        1.426205   1.000000
   89        1.558381   1.000000
   90        1.581558   1.000000
   91        1.680635   1.000000
   92        1.791332   1.000000
   93        1.824509   1.000000
   94        1.909574   1.000000
   95        2.050266   1.000000
   96        2.184573   1.000001
   97        2.537944   1.011149
   98        2.611041   1.026448
   99        2.786119   0.941702
  100        3.131072  -0.031168
  101        3.155146  -0.035304
  102        3.207531  -0.029571
  103        3.279868  -0.013769
  104        3.341830  -0.005187
  105        3.445422  -0.000591
  106        3.469615  -0.000325
  107        3.631244  -0.000003
  108        3.697346  -0.000000
  109        3.746908  -0.000000
  110        3.760333  -0.000000
  111        3.823501  -0.000000
  112        3.852682  -0.000000
  113        3.887436  -0.000000
  114        4.014596  -0.000000
  115        4.036611  -0.000000
  116        4.126559  -0.000000
  117        4.192353  -0.000000
  118        4.202069  -0.000000
  119        4.234778  -0.000000
  120        4.273941  -0.000000
  121        4.316653  -0.000000
  122        4.338357  -0.000000
  123        4.437034  -0.000000
  124        4.486182  -0.000000
  125        4.535618  -0.000000
  126        4.623788  -0.000000
  127        4.665404  -0.000000
  128        4.741775  -0.000000
  129        4.837604  -0.000000
  130        4.962256  -0.000000
  131        5.072254  -0.000000
  132        5.164484  -0.000000

  0.4444444E+00  0.3698634E-15  0.1262379E-14  0.2469136E-01
    1      -10.315926   1.000000
    2       -9.821397   1.000000
    3       -9.764854   1.000000
    4       -9.346565   1.000000
    5       -9.193816   1.000000
    6       -8.847079   1.000000
    7       -8.301565   1.000000
    8       -8.029532   1.000000
    9       -7.990626   1.000000
   10       -7.930934   1.000000
   11       -7.895430   1.000000
   12       -7.856359   1.000000
   13       -7.804192   1.000000
   14       -7.695052   1.000000
   15       -7.632166   1.000000
   16       -7.347413   1.000000
   17       -6.429257   1.000000
   18       -6.174531   1.000000
   19       -6.009139   1.000000
   20       -5.995716   1.000000
   21       -5.404078   1.000000
   22       -5.330730   1.000000
   23       -5.256548   1.000000
   24       -5.248177   1.000000
   25       -5.225752   1.000000
   26       -5.158238   1.000000
   27       -4.283216   1.000000
   28       -4.130686   1.000000
   29       -4.035144   1.000000
   30       -3.854509   1.000000
   31       -3.838157   1.000000
   32       -3.795878   1.000000
   33       -3.737374   1.000000
   34       -3.588485   1.000000
   35       -3.559309   1.000000
   36       -3.411309   1.000000
   37       -3.375377   1.000000
   38       -3.299613   1.000000
   39       -3.248749   1.000000
   40       -3.227464   1.000000
   41       -3.151080   1.000000
   42       -3.064250   1.000000
   43       -2.883606   1.000000
   44       -2.798629   1.000000
   45       -2.501380   1.000000
   46       -2.334823   1.000000
   47       -2.175799   1.000000
   48       -2.154627   1.000000
   49       -2.038479   1.000000
   50       -1.971134   1.000000
   51       -1.905658   1.000000
   52       -1.816910   1.000000
   53       -1.729150   1.000000
   54       -1.682804   1.000000
   55       -1.623474   1.000000
   56       -1.584621   1.000000
   57       -1.527000   1.000000
   58       -1.486410   1.000000
   59       -1.413812   1.000000
   60       -1.345877   1.000000
   61       -1.241792   1.000000
   62       -1.214881   1.000000
   63       -1.145460   1.000000
   64       -1.101970   1.000000
   65       -1.059896   1.000000
   66       -0.945705   1.000000
   67       -0.916489   1.000000
   68       -0.836133   1.000000
   69       -0.793899   1.000000
   70       -0.652109   1.000000
   71       -0.558119   1.000000
   72       -0.476185   1.000000
   73       -0.375555   1.000000
   74       -0.262088   1.000000
   75       -0.193127   1.000000
   76       -0.136081   1.000000
   77        0.073127   1.000000
   78        0.081304   1.000000
   79        0.134854   1.000000
   80        0.465180   1.000000
   81        0.539018   1.000000
   82        0.634623   1.000000
   83        0.870962   1.000000
   84        0.922883   1.000000
   85        1.125655   1.000000
   86        1.235673   1.000000
   87        1.314910   1.000000
   88        1.386327   1.000000
   89        1.513911   1.000000
   90        1.609508   1.000000
   91        1.650224   1.000000
   92        1.732690   1.000000
   93        1.777348   1.000000
   94        1.878359   1.000000
   95        2.244596   1.000011
   96        2.248387   1.000012
   97        2.600861   1.024104
   98        2.631509   1.030849
   99        2.693447   1.033299
  100        2.731233   1.015602
  101        2.751337   0.996216
  102        3.007589   0.154979
  103        3.110527  -0.021820
  104        3.229790  -0.024590
  105        3.419556  -0.001078
  106        3.464699  -0.000368
  107        3.560676  -0.000026
  108        3.603087  -0.000007
  109        3.657980  -0.000001
  110        3.673611  -0.000001
  111        3.737900  -0.000000
  112        3.768060  -0.000000
  113        3.830195  -0.000000
  114        3.971161  -0.000000
  115        3.981431  -0.000000
  116        4.077946  -0.000000
  117        4.138319  -0.000000
  118        4.171603  -0.000000
  119        4.240045  -0.000000
  120        4.271342  -0.000000
  121        4.343414  -0.000000
  122        4.374374  -0.000000
  123        4.433301  -0.000000
  124        4.538941  -0.000000
  125        4.666567  -0.000000
  126        4.712314  -0.000000
  127        4.745800  -0.000000
  128        4.787160  -0.000000
  129        4.899036  -0.000000
  130        5.058764  -0.000000
  131        5.192772  -0.000000
  132        5.303677  -0.000000

  0.3742002E-15  0.1111111E+00  0.1262379E-14  0.2469136E-01
    1      -11.121260   1.000000
    2      -10.542086   1.000000
    3       -9.757706   1.000000
    4       -8.802869   1.000000
    5       -8.257033   1.000000
    6       -8.215876   1.000000
    7       -7.965743   1.000000
    8       -7.957856   1.000000
    9       -7.700554   1.000000
   10       -7.542607   1.000000
   11       -7.517378   1.000000
   12       -7.503425   1.000000
   13       -7.455141   1.000000
   14       -7.439674   1.000000
   15       -6.948053   1.000000
   16       -6.818077   1.000000
   17       -6.755636   1.000000
   18       -6.565394   1.000000
   19       -6.524622   1.000000
   20       -6.399299   1.000000
   21       -6.239552   1.000000
   22       -5.987527   1.000000
   23       -5.867764   1.000000
   24       -5.708573   1.000000
   25       -5.598140   1.000000
   26       -5.491136   1.000000
   27       -5.426505   1.000000
   28       -5.412210   1.000000
   29       -5.243643   1.000000
   30       -5.063260   1.000000
   31       -4.705683   1.000000
   32       -4.170915   1.000000
   33       -4.116276   1.000000
   34       -4.053387   1.000000
   35       -3.964647   1.000000
   36       -3.861029   1.000000
   37       -3.588310   1.000000
   38       -3.143590   1.000000
   39       -2.906561   1.000000
   40       -2.817514   1.000000
   41       -2.610199   1.000000
   42       -2.524103   1.000000
   43       -2.366896   1.000000
   44       -2.309294   1.000000
   45       -2.214026   1.000000
   46       -2.160653   1.000000
   47       -2.078699   1.000000
   48       -2.036322   1.000000
   49       -1.855528   1.000000
   50       -1.710443   1.000000
   51       -1.641538   1.000000
   52       -1.593939   1.000000
   53       -1.544537   1.000000
   54       -1.446786   1.000000
   55       -1.368937   1.000000
   56       -1.287998   1.000000
   57       -1.260818   1.000000
   58       -1.208918   1.000000
   59       -1.098950   1.000000
   60       -1.039662   1.000000
   61       -1.013284   1.000000
   62       -0.985169   1.000000
   63       -0.921696   1.000000
   64       -0.786299   1.000000
   65       -0.734676   1.000000
   66       -0.723343   1.000000
   67       -0.657145   1.000000
   68       -0.527084   1.000000
   69       -0.461319   1.000000
   70       -0.368611   1.000000
   71       -0.338715   1.000000
   72       -0.261519   1.000000
   73       -0.154303   1.000000
   74       -0.099152   1.000000
   75        0.027425   1.000000
   76        0.177117   1.000000
   77        0.267378   1.000000
   78        0.276652   1.000000
   79        0.484760   1.000000
   80        0.547262   1.000000
   81        0.669687   1.000000
   82        0.703654   1.000000
   83        1.047155   1.000000
   84        1.290444   1.000000
   85        1.378608   1.000000
   86        1.421466   1.000000
   87        1.496643   1.000000
   88        1.581412   1.000000
   89        1.737410   1.000000
   90        1.789290   1.000000
   91        1.877712   1.000000
   92        1.916213   1.000000
   93        1.934465   1.000000
   94        1.996165   1.000000
   95        2.157867   1.000001
   96        2.254960   1.000015
   97        2.506221   1.006762
   98        2.712801   1.026884
   99        2.988274   0.216471
  100        3.025567   0.105714
  101        3.149912  -0.034916
  102        3.217906  -0.027309
  103        3.302822  -0.009890
  104        3.412298  -0.001268
  105        3.609690  -0.000005
  106        3.669741  -0.000001
  107        3.794353  -0.000000
  108        3.860578  -0.000000
  109        3.892214  -0.000000
  110        3.907479  -0.000000
  111        3.930253  -0.000000
  112        3.988404  -0.000000
  113        4.013897  -0.000000
  114        4.043070  -0.000000
  115        4.124929  -0.000000
  116        4.132245  -0.000000
  117        4.159525  -0.000000
  118        4.193485  -0.000000
  119        4.252422  -0.000000
  120        4.321898  -0.000000
  121        4.331716  -0.000000
  122        4.355400  -0.000000
  123        4.404186  -0.000000
  124        4.467779  -0.000000
  125        4.491157  -0.000000
  126        4.540272  -0.000000
  127        4.634593  -0.000000
  128        4.668180  -0.000000
  129        4.854685  -0.000000
  130        5.017390  -0.000000
  131        5.210690  -0.000000
  132        5.437144  -0.000000

  0.1111111E+00  0.1111111E+00  0.1262379E-14  0.2469136E-01
    1      -11.006871   1.000000
    2      -10.438378   1.000000
    3       -9.675510   1.000000
    4       -8.726285   1.000000
    5       -8.345414   1.000000
    6       -8.262315   1.000000
    7       -8.193650   1.000000
    8       -8.190523   1.000000
    9       -8.085921   1.000000
   10       -7.904884   1.000000
   11       -7.788636   1.000000
   12       -7.590350   1.000000
   13       -7.357179   1.000000
   14       -7.167794   1.000000
   15       -7.079777   1.000000
   16       -6.971945   1.000000
   17       -6.492230   1.000000
   18       -6.484203   1.000000
   19       -6.435935   1.000000
   20       -6.254158   1.000000
   21       -5.899957   1.000000
   22       -5.834778   1.000000
   23       -5.798390   1.000000
   24       -5.531022   1.000000
   25       -5.498552   1.000000
   26       -5.415713   1.000000
   27       -5.343419   1.000000
   28       -5.224735   1.000000
   29       -5.030570   1.000000
   30       -5.029346   1.000000
   31       -4.644755   1.000000
   32       -4.240613   1.000000
   33       -3.860989   1.000000
   34       -3.695154   1.000000
   35       -3.660160   1.000000
   36       -3.612782   1.000000
   37       -3.456359   1.000000
   38       -3.173077   1.000000
   39       -2.990231   1.000000
   40       -2.946879   1.000000
   41       -2.825732   1.000000
   42       -2.810592   1.000000
   43       -2.459201   1.000000
   44       -2.267661   1.000000
   45       -2.195870   1.000000
   46       -2.115574   1.000000
   47       -2.104267   1.000000
   48       -2.010755   1.000000
   49       -1.931427   1.000000
   50       -1.811347   1.000000
   51       -1.659820   1.000000
   52       -1.638140   1.000000
   53       -1.618504   1.000000
   54       -1.473622   1.000000
   55       -1.451529   1.000000
   56       -1.423633   1.000000
   57       -1.335297   1.000000
   58       -1.294988   1.000000
   59       -1.211492   1.000000
   60       -1.011031   1.000000
   61       -0.978176   1.000000
   62       -0.933041   1.000000
   63       -0.920310   1.000000
   64       -0.866639   1.000000
   65       -0.820026   1.000000
   66       -0.772968   1.000000
   67       -0.728951   1.000000
   68       -0.596966   1.000000
   69       -0.503511   1.000000
   70       -0.444014   1.000000
   71       -0.380661   1.000000
   72       -0.302854   1.000000
   73       -0.248905   1.000000
   74       -0.234778   1.000000
   75       -0.092969   1.000000
   76        0.022064   1.000000
   77        0.117757   1.000000
   78        0.372779   1.000000
   79        0.493555   1.000000
   80        0.584430   1.000000
   81        0.588247   1.000000
   82        0.625987   1.000000
   83        0.869841   1.000000
   84        0.985498   1.000000
   85        1.242241   1.000000
   86        1.294520   1.000000
   87        1.469745   1.000000
   88        1.603945   1.000000
   89        1.697015   1.000000
   90        1.738748   1.000000
   91        1.768363   1.000000
   92        1.785262   1.000000
   93        1.787361   1.000000
   94        1.918002   1.000000
   95        2.067608   1.000000
   96        2.349886   1.000231
   97        2.496517   1.005725
   98        2.797401   0.917701