   76   76    1    1
  0.2032295E+02  0.1036705E-08  0.2428040E-08  0.6136055E-09  0.5000000E-15
   1.0000000000000000E-004
  CAR 
 Name                                    
    280     23    180

  0.3742002E-15  0.1262379E-14  0.3742002E-15  0.2222222E-01
    1      -13.974134   1.000000
    2      -12.794745   1.000000
    3      -12.791842   1.000000
    4      -12.785163   1.000000
    5      -11.843278   1.000000
    6      -11.690374   1.000000
    7      -11.649745   1.000000
    8      -11.420851   1.000000
    9      -11.411939   1.000000
   10      -11.251580   1.000000
   11      -11.240959   1.000000
   12      -10.992777   1.000000
   13      -10.898453   1.000000
   14      -10.434921   1.000000
   15      -10.416452   1.000000
   16      -10.313362   1.000000
   17      -10.152630   1.000000
   18      -10.029434   1.000000
   19       -9.725708   1.000000
   20       -9.544582   1.000000
   21       -9.507609   1.000000
   22       -9.433662   1.000000
   23       -9.350092   1.000000
   24       -9.337306   1.000000
   25       -8.821640   1.000000
   26       -8.778294   1.000000
   27       -8.551271   1.000000
   28       -8.464162   1.000000
   29       -8.203231   1.000000
   30       -8.164839   1.000000
   31       -8.066624   1.000000
   32       -7.750557   1.000000
   33       -7.706524   1.000000
   34       -7.321013   1.000000
   35       -7.248305   1.000000
   36       -7.146285   1.000000
   37       -6.961260   1.000000
   38       -6.876107   1.000000
   39       -6.788758   1.000000
   40       -6.634780   1.000000
   41       -6.630219   1.000000
   42       -6.628306   1.000000
   43       -6.627464   1.000000
   44       -6.456999   1.000000
   45       -6.422278   1.000000
   46       -6.179522   1.000000
   47       -6.165308   1.000000
   48       -6.039200   1.000000
   49       -6.038247   1.000000
   50       -5.856771   1.000000
   51       -5.713767   1.000000
   52       -5.598923   1.000000
   53       -5.583041   1.000000
   54       -5.555917   1.000000
   55       -5.553028   1.000000
   56       -5.491809   1.000000
   57       -5.394946   1.000000
   58       -5.353092   1.000000
   59       -5.232642   1.000000
   60       -5.153383   1.000000
   61       -5.144773   1.000000
   62       -4.891723   1.000000
   63       -4.868250   1.000000
   64       -4.753328   1.000000
   65       -4.638073   1.000000
   66       -4.617011   1.000000
   67       -4.614435   1.000000
   68       -4.463562   1.000000
   69       -4.458002   1.000000
   70       -4.261491   1.000000
   71       -4.121872   1.000000
   72       -4.100375   1.000000
   73       -4.068864   1.000000
   74       -4.030958   1.000000
   75       -3.962288   1.000000
   76       -3.939000   1.000000
   77       -3.873964   1.000000
   78       -3.853229   1.000000
   79       -3.848740   1.000000
   80       -3.847689   1.000000
   81       -3.820177   1.000000
   82       -3.717743   1.000000
   83       -3.541204   1.000000
   84       -3.533439   1.000000
   85       -3.504170   1.000000
   86       -3.491956   1.000000
   87       -3.454945   1.000000
   88       -3.429204   1.000000
   89       -3.416700   1.000000
   90       -3.411728   1.000000
   91       -3.390352   1.000000
   92       -3.373172   1.000000
   93       -3.187073   1.000000
   94       -3.134253   1.000000
   95       -3.119412   1.000000
   96       -2.984707   1.000000
   97       -2.866519   1.000000
   98       -2.826977   1.000000
   99       -2.824595   1.000000
  100       -2.697343   1.000000
  101       -2.590914   1.000000
  102       -2.523677   1.000000
  103       -2.443857   1.000000
  104       -2.383256   1.000000
  105       -2.266278   1.000000
  106       -2.219935   1.000000
  107       -2.146524   1.000000
  108       -2.063798   1.000000
  109       -1.940553   1.000000
  110       -1.927595   1.000000
  111       -1.915570   1.000000
  112       -1.906383   1.000000
  113       -1.831198   1.000000
  114       -1.780114   1.000000
  115       -1.673527   1.000000
  116       -1.653366   1.000000
  117       -1.532670   1.000000
  118       -1.528964   1.000000
  119       -1.526204   1.000000
  120       -1.468698   1.000000
  121       -1.338793   1.000000
  122       -1.293859   1.000000
  123       -1.258853   1.000000
  124       -0.816871   1.000000
  125       -0.712991   1.000000
  126       -0.611503   1.000000
  127       -0.444790   1.000000
  128       -0.423183   1.000000
  129       -0.324753   1.000000
  130       -0.262298   1.000000
  131       -0.027513   1.000000
  132        0.042107   1.000000
  133        0.143264   1.000019
  134        0.316045   1.025559
  135        0.332369   1.032381
  136        0.351837   1.035241
  137        0.368180   1.027506
  138        0.451166   0.661485
  139        0.535306   0.060195
  140        0.552070   0.006413
  141        0.612401  -0.031115
  142        0.642087  -0.017927
  143        0.686685  -0.004604
  144        0.689555  -0.004142
  145        0.693244  -0.003605
  146        0.704888  -0.002275
  147        0.718588  -0.001269
  148        0.733312  -0.000646
  149        0.858458  -0.000000
  150        0.897162  -0.000000
  151        0.921092  -0.000000
  152        1.056147  -0.000000
  153        1.165057  -0.000000
  154        1.225296  -0.000000
  155        1.234901  -0.000000
  156        1.242465  -0.000000
  157        1.279427  -0.000000
  158        1.381134  -0.000000
  159        1.393858  -0.000000
  160        1.444543  -0.000000
  161        1.448550  -0.000000
  162        1.511070  -0.000000
  163        1.518887  -0.000000
  164        1.537675  -0.000000
  165        1.570578  -0.000000
  166        1.636501  -0.000000
  167        1.683743  -0.000000
  168        1.748675  -0.000000
  169        1.795601  -0.000000
  170        1.813023  -0.000000
  171        1.841284  -0.000000
  172        1.862885  -0.000000
  173        2.217146  -0.000000
  174        2.314510  -0.000000
  175        2.411738  -0.000000
  176        2.493310  -0.000000
  177        2.613340  -0.000000
  178        2.849763  -0.000000
  179        3.202428   0.000000
  180        3.577629   0.000000

  0.2000000E+00  0.1262379E-14  0.3742002E-15  0.4444444E-01
    1      -13.924741   1.000000
    2      -13.203781   1.000000
    3      -12.748352   1.000000
    4      -12.298454   1.000000
    5      -12.066033   1.000000
    6      -11.826953   1.000000
    7      -11.573507   1.000000
    8      -11.230723   1.000000
    9      -11.226349   1.000000
   10      -11.210436   1.000000
   11      -11.199101   1.000000
   12      -11.056922   1.000000
   13      -10.807620   1.000000
   14      -10.599381   1.000000
   15      -10.534304   1.000000
   16      -10.495259   1.000000
   17      -10.444511   1.000000
   18       -9.798612   1.000000
   19       -9.719022   1.000000
   20       -9.559180   1.000000
   21       -9.439454   1.000000
   22       -9.414699   1.000000
   23       -9.407615   1.000000
   24       -9.297121   1.000000
   25       -8.970248   1.000000
   26       -8.831028   1.000000
   27       -8.224856   1.000000
   28       -8.153147   1.000000
   29       -8.143764   1.000000
   30       -8.127101   1.000000
   31       -8.092401   1.000000
   32       -7.991411   1.000000
   33       -7.565555   1.000000
   34       -7.450295   1.000000
   35       -7.155828   1.000000
   36       -7.153952   1.000000
   37       -7.124301   1.000000
   38       -7.105126   1.000000
   39       -6.823515   1.000000
   40       -6.734263   1.000000
   41       -6.713617   1.000000
   42       -6.634772   1.000000
   43       -6.551345   1.000000
   44       -6.469399   1.000000
   45       -6.389386   1.000000
   46       -6.237543   1.000000
   47       -6.102394   1.000000
   48       -6.004621   1.000000
   49       -6.002108   1.000000
   50       -5.961799   1.000000
   51       -5.646385   1.000000
   52       -5.611325   1.000000
   53       -5.524514   1.000000
   54       -5.352500   1.000000
   55       -5.332367   1.000000
   56       -5.322060   1.000000
   57       -5.309335   1.000000
   58       -5.291059   1.000000
   59       -5.279529   1.000000
   60       -5.244083   1.000000
   61       -5.188977   1.000000
   62       -5.132040   1.000000
   63       -4.788593   1.000000
   64       -4.777735   1.000000
   65       -4.775751   1.000000
   66       -4.672227   1.000000
   67       -4.601212   1.000000
   68       -4.497983   1.000000
   69       -4.455519   1.000000
   70       -4.389669   1.000000
   71       -4.195064   1.000000
   72       -4.084576   1.000000
   73       -4.050651   1.000000
   74       -4.009627   1.000000
   75       -3.940533   1.000000
   76       -3.921253   1.000000
   77       -3.914567   1.000000
   78       -3.820269   1.000000
   79       -3.814736   1.000000
   80       -3.761861   1.000000
   81       -3.716455   1.000000
   82       -3.680687   1.000000
   83       -3.678870   1.000000
   84       -3.553404   1.000000
   85       -3.526831   1.000000
   86       -3.525420   1.000000
   87       -3.484321   1.000000
   88       -3.453106   1.000000
   89       -3.377739   1.000000
   90       -3.369285   1.000000
   91       -3.362895   1.000000
   92       -3.325607   1.000000
   93       -3.252459   1.000000
   94       -3.188659   1.000000
   95       -3.112724   1.000000
   96       -2.996219   1.000000
   97       -2.918161   1.000000
   98       -2.884743   1.000000
   99       -2.700601   1.000000
  100       -2.684208   1.000000
  101       -2.635333   1.000000
  102       -2.533862   1.000000
  103       -2.431594   1.000000
  104       -2.412650   1.000000
  105       -2.297569   1.000000
  106       -2.244563   1.000000
  107       -2.121958   1.000000
  108       -2.071697   1.000000
  109       -1.900101   1.000000
  110       -1.861318   1.000000
  111       -1.848248   1.000000
  112       -1.819656   1.000000
  113       -1.790341   1.000000
  114       -1.752484   1.000000
  115       -1.690273   1.000000
  116       -1.644114   1.000000
  117       -1.561686   1.000000
  118       -1.492717   1.000000
  119       -1.394825   1.000000
  120       -1.384324   1.000000
  121       -1.351987   1.000000
  122       -1.221820   1.000000
  123       -1.215117   1.000000
  124       -0.893417   1.000000
  125       -0.735372   1.000000
  126       -0.709813   1.000000
  127       -0.540617   1.000000
  128       -0.438599   1.000000
  129       -0.337433   1.000000
  130       -0.329267   1.000000
  131       -0.170728   1.000000
  132       -0.131113   1.000000
  133       -0.014927   1.000000
  134        0.194699   1.000336
  135        0.215238   1.000906
  136        0.268873   1.007545
  137        0.333007   1.032598
  138        0.486795   0.365346
  139        0.490970   0.331929
  140        0.617140  -0.029186
  141        0.632029  -0.022431
  142        0.635518  -0.020834
  143        0.698243  -0.002970
  144        0.741583  -0.000432
  145        0.748043  -0.000313
  146        0.756319  -0.000204
  147        0.771859  -0.000087
  148        0.813813  -0.000007
  149        0.864335  -0.000000
  150        0.908419  -0.000000
  151        1.056512  -0.000000
  152        1.095045  -0.000000
  153        1.185506  -0.000000
  154        1.235466  -0.000000
  155        1.310035  -0.000000
  156        1.332514  -0.000000
  157        1.362300  -0.000000
  158        1.402180  -0.000000
  159        1.412329  -0.000000
  160        1.448619  -0.000000
  161        1.464725  -0.000000
  162        1.514469  -0.000000
  163        1.536619  -0.000000
  164        1.584711  -0.000000
  165        1.596613  -0.000000
  166        1.648462  -0.000000
  167        1.702954  -0.000000
  168        1.716397  -0.000000
  169        1.731645  -0.000000
  170        1.773962  -0.000000
  171        1.824564  -0.000000
  172        1.882185  -0.000000
  173        2.033481  -0.000000
  174        2.318533  -0.000000
  175        2.422922  -0.000000
  176        2.494386  -0.000000
  177        2.854840  -0.000000
  178        3.055881  -0.000000
  179        3.432580   0.000000
  180        4.027771   0.000000

  0.4000000E+00  0.1262379E-14  0.3742002E-15  0.4444444E-01
    1      -13.777578   1.000000
    2      -13.535639   1.000000
    3      -12.609919   1.000000
    4      -12.381710   1.000000
    5      -11.777483   1.000000
    6      -11.741373   1.000000
    7      -11.693543   1.000000
    8      -11.199705   1.000000
    9      -11.150267   1.000000
   10      -11.141827   1.000000
   11      -11.076422   1.000000
   12      -10.983500   1.000000
   13      -10.883269   1.000000
   14      -10.747126   1.000000
   15      -10.670176   1.000000
   16      -10.658017   1.000000
   17      -10.538403   1.000000
   18      -10.067825   1.000000
   19       -9.692919   1.000000
   20       -9.637992   1.000000
   21       -9.344354   1.000000
   22       -9.337080   1.000000
   23       -9.301907   1.000000
   24       -9.287744   1.000000
   25       -9.063711   1.000000
   26       -8.767433   1.000000
   27       -8.253802   1.000000
   28       -8.016534   1.000000
   29       -7.811352   1.000000
   30       -7.802405   1.000000
   31       -7.764006   1.000000
   32       -7.748753   1.000000
   33       -7.740610   1.000000
   34       -7.664134   1.000000
   35       -7.453039   1.000000
   36       -7.423019   1.000000
   37       -7.307059   1.000000
   38       -7.249590   1.000000
   39       -7.164461   1.000000
   40       -6.889787   1.000000
   41       -6.716118   1.000000
   42       -6.510179   1.000000
   43       -6.501734   1.000000
   44       -6.364381   1.000000
   45       -6.342675   1.000000
   46       -6.117527   1.000000
   47       -6.103777   1.000000
   48       -5.911588   1.000000
   49       -5.880943   1.000000
   50       -5.786323   1.000000
   51       -5.777489   1.000000
   52       -5.661301   1.000000
   53       -5.645848   1.000000
   54       -5.528766   1.000000
   55       -5.363375   1.000000
   56       -5.276755   1.000000
   57       -5.264603   1.000000
   58       -5.249191   1.000000
   59       -5.085083   1.000000
   60       -5.042206   1.000000
   61       -5.027420   1.000000
   62       -4.962894   1.000000
   63       -4.961773   1.000000
   64       -4.821764   1.000000
   65       -4.770646   1.000000
   66       -4.695046   1.000000
   67       -4.622234   1.000000
   68       -4.579316   1.000000
   69       -4.513976   1.000000
   70       -4.366159   1.000000
   71       -4.284125   1.000000
   72       -4.189715   1.000000
   73       -4.100350   1.000000
   74       -4.077075   1.000000
   75       -4.036675   1.000000
   76       -4.005377   1.000000
   77       -3.892483   1.000000
   78       -3.860495   1.000000
   79       -3.766443   1.000000
   80       -3.723277   1.000000
   81       -3.660755   1.000000
   82       -3.643883   1.000000
   83       -3.634659   1.000000
   84       -3.621951   1.000000
   85       -3.591046   1.000000
   86       -3.562591   1.000000
   87       -3.443878   1.000000
   88       -3.414495   1.000000
   89       -3.391468   1.000000
   90       -3.366375   1.000000
   91       -3.277387   1.000000
   92       -3.196990   1.000000
   93       -3.173880   1.000000
   94       -3.164451   1.000000
   95       -3.047079   1.000000
   96       -3.041099   1.000000
   97       -3.013434   1.000000
   98       -2.905670   1.000000
   99       -2.878565   1.000000
  100       -2.764662   1.000000
  101       -2.703449   1.000000
  102       -2.567166   1.000000
  103       -2.413437   1.000000
  104       -2.340310   1.000000
  105       -2.318890   1.000000
  106       -2.131005   1.000000
  107       -2.092258   1.000000
  108       -2.023170   1.000000
  109       -1.946062   1.000000
  110       -1.866690   1.000000
  111       -1.843925   1.000000
  112       -1.826245   1.000000
  113       -1.735401   1.000000
  114       -1.604995   1.000000
  115       -1.591897   1.000000
  116       -1.577198   1.000000
  117       -1.508869   1.000000
  118       -1.424945   1.000000
  119       -1.351338   1.000000
  120       -1.165494   1.000000
  121       -1.103730   1.000000
  122       -1.043875   1.000000
  123       -1.019631   1.000000
  124       -1.010261   1.000000
  125       -0.981401   1.000000
  126       -0.825270   1.000000
  127       -0.711544   1.000000
  128       -0.678264   1.000000
  129       -0.620412   1.000000
  130       -0.490207   1.000000
  131       -0.352452   1.000000
  132       -0.320382   1.000000
  133       -0.020612   1.000000
  134        0.005777   1.000000
  135        0.143412   1.000019
  136        0.304065   1.020057
  137        0.314149   1.024684
  138        0.413969   0.904574
  139        0.541389   0.037581
  140        0.556509  -0.003552
  141        0.588288  -0.035073
  142        0.649049  -0.015055
  143        0.697053  -0.003112
  144        0.718115  -0.001296
  145        0.750587  -0.000274
  146        0.782420  -0.000048
  147        0.784205  -0.000043
  148        0.836330  -0.000001
  149        0.905188  -0.000000
  150        1.057010  -0.000000
  151        1.214300  -0.000000
  152        1.260760  -0.000000
  153        1.269047  -0.000000
  154        1.281429  -0.000000
  155        1.351501  -0.000000
  156        1.359917  -0.000000
  157        1.397061  -0.000000
  158        1.486033  -0.000000
  159        1.517061  -0.000000
  160        1.536961  -0.000000
  161        1.539845  -0.000000
  162        1.563742  -0.000000
  163        1.591780  -0.000000
  164        1.649872  -0.000000
  165        1.678421  -0.000000
  166        1.706782  -0.000000
  167        1.713519  -0.000000
  168        1.724463  -0.000000
  169        1.727514  -0.000000
  170        1.806117  -0.000000
  171        1.814292  -0.000000
  172        1.838908  -0.000000
  173        1.926342  -0.000000
  174        1.935143  -0.000000
  175        1.938102  -0.000000
  176        2.054263  -0.000000
  177        2.168062  -0.000000
  178        2.724800  -0.000000
  179        2.830616  -0.000000
  180        3.033699  -0.000000

  0.3742002E-15  0.1262379E-14  0.1111111E+00  0.4444444E-01
    1      -13.928665   1.000000
    2      -12.757096   1.000000
    3      -12.755831   1.000000
    4      -12.750561   1.000000
    5      -11.948180   1.000000
    6      -11.661937   1.000000
    7      -11.620316   1.000000
    8      -11.466281   1.000000
    9      -11.459040   1.000000
   10      -11.317815   1.000000
   11      -11.204448   1.000000
   12      -11.002558   1.000000
   13      -10.910905   1.000000
   14      -10.442256   1.000000
   15      -10.411081   1.000000
   16      -10.280127   1.000000
   17      -10.137462   1.000000
   18       -9.990350   1.000000
   19       -9.746274   1.000000
   20       -9.575624   1.000000
   21       -9.487898   1.000000
   22       -9.461181   1.000000
   23       -9.350298   1.000000
   24       -9.322628   1.000000
   25       -8.807530   1.000000
   26       -8.793083   1.000000
   27       -8.550385   1.000000
   28       -8.454374   1.000000
   29       -8.242266   1.000000
   30       -8.146790   1.000000
   31       -7.905958   1.000000
   32       -7.799678   1.000000
   33       -7.762530   1.000000
   34       -7.363321   1.000000
   35       -7.294696   1.000000
   36       -7.251324   1.000000
   37       -6.933867   1.000000
   38       -6.886832   1.000000
   39       -6.773968   1.000000
   40       -6.631424   1.000000
   41       -6.565510   1.000000
   42       -6.564640   1.000000
   43       -6.556366   1.000000
   44       -6.439158   1.000000
   45       -6.412347   1.000000
   46       -6.197350   1.000000
   47       -6.188590   1.000000
   48       -6.082616   1.000000
   49       -6.057638   1.000000
   50       -5.808019   1.000000
   51       -5.668881   1.000000
   52       -5.657261   1.000000
   53       -5.616350   1.000000
   54       -5.563053   1.000000
   55       -5.505051   1.000000
   56       -5.455903   1.000000
   57       -5.379056   1.000000
   58       -5.344409   1.000000
   59       -5.149102   1.000000
   60       -5.123785   1.000000
   61       -5.092775   1.000000
   62       -4.902857   1.000000
   63       -4.843083   1.000000
   64       -4.717668   1.000000
   65       -4.594203   1.000000
   66       -4.588767   1.000000
   67       -4.528174   1.000000
   68       -4.463942   1.000000
   69       -4.451587   1.000000
   70       -4.234288   1.000000
   71       -4.162520   1.000000
   72       -4.117250   1.000000
   73       -4.050045   1.000000
   74       -4.032880   1.000000
   75       -3.993482   1.000000
   76       -3.932155   1.000000
   77       -3.921207   1.000000
   78       -3.905274   1.000000
   79       -3.873033   1.000000
   80       -3.846939   1.000000
   81       -3.846072   1.000000
   82       -3.782418   1.000000
   83       -3.684205   1.000000
   84       -3.666753   1.000000
   85       -3.594295   1.000000
   86       -3.577047   1.000000
   87       -3.537311   1.000000
   88       -3.479093   1.000000
   89       -3.457813   1.000000
   90       -3.423453   1.000000
   91       -3.384845   1.000000
   92       -3.373140   1.000000
   93       -3.237470   1.000000
   94       -3.141410   1.000000
   95       -3.114385   1.000000
   96       -3.025138   1.000000
   97       -2.868210   1.000000
   98       -2.794188   1.000000
   99       -2.777238   1.000000
  100       -2.603689   1.000000
  101       -2.554532   1.000000
  102       -2.435400   1.000000
  103       -2.432862   1.000000
  104       -2.416865   1.000000
  105       -2.292603   1.000000
  106       -2.209273   1.000000
  107       -2.120464   1.000000
  108       -2.085112   1.000000
  109       -1.994592   1.000000
  110       -1.966067   1.000000
  111       -1.929006   1.000000
  112       -1.842113   1.000000
  113       -1.819766   1.000000
  114       -1.713698   1.000000
  115       -1.709954   1.000000
  116       -1.601801   1.000000
  117       -1.593359   1.000000
  118       -1.536155   1.000000
  119       -1.519722   1.000000
  120       -1.422855   1.000000
  121       -1.265444   1.000000
  122       -1.253786   1.000000
  123       -1.210143   1.000000
  124       -0.814892   1.000000
  125       -0.750009   1.000000
  126       -0.583233   1.000000
  127       -0.492541   1.000000
  128       -0.436987   1.000000
  129       -0.372268   1.000000
  130       -0.199673   1.000000
  131       -0.193962   1.000000
  132       -0.071406   1.000000
  133        0.220996   1.001176
  134        0.271517   1.008220
  135        0.315307   1.025219
  136        0.322543   1.028486
  137        0.334820   1.033181
  138        0.346596   1.035420
  139        0.453537   0.642513
  140        0.517205   0.149422
  141        0.522323   0.120866
  142        0.544052   0.028815
  143        0.666799  -0.009036
  144        0.686865  -0.004574
  145        0.723543  -0.001017
  146        0.877630  -0.000000
  147        0.913967  -0.000000
  148        0.921292  -0.000000
  149        0.922996  -0.000000
  150        0.981325  -0.000000
  151        1.015512  -0.000000
  152        1.099188  -0.000000
  153        1.139833  -0.000000
  154        1.151964  -0.000000
  155        1.186173  -0.000000
  156        1.239853  -0.000000
  157        1.334431  -0.000000
  158        1.362531  -0.000000
  159        1.406375  -0.000000
  160        1.412947  -0.000000
  161        1.482963  -0.000000
  162        1.494899  -0.000000
  163        1.541043  -0.000000
  164        1.543519  -0.000000
  165        1.565816  -0.000000
  166        1.640696  -0.000000
  167        1.661369  -0.000000
  168        1.687598  -0.000000
  169        1.719132  -0.000000
  170        1.741763  -0.000000
  171        1.805500  -0.000000
  172        1.851184  -0.000000
  173        1.894087  -0.000000
  174        1.975682  -0.000000
  175        2.049412  -0.000000
  176        2.372185  -0.000000
  177        2.510497  -0.000000
  178        2.614966  -0.000000
  179        4.027085   0.000000
  180        4.077271   0.000000

  0.2000000E+00  0.1262379E-14  0.1111111E+00  0.4444444E-01
    1      -13.879674   1.000000
    2      -13.165037   1.000000
    3      -12.709825   1.000000
    4      -12.269391   1.000000
    5      -12.033389   1.000000
    6      -11.928969   1.000000
    7      -11.635166   1.000000
    8      -11.299955   1.000000
    9      -11.255746   1.000000
   10      -11.176227   1.000000
   11      -11.168368   1.000000
   12      -11.080164   1.000000
   13      -10.810437   1.000000
   14      -10.570015   1.000000
   15      -10.521680   1.000000
   16      -10.481080   1.000000
   17      -10.453023   1.000000
   18       -9.778613   1.000000
   19       -9.741446   1.000000
   20       -9.554860   1.000000
   21       -9.430420   1.000000
   22       -9.430273   1.000000
   23       -9.400943   1.000000
   24       -9.302369   1.000000
   25       -8.968858   1.000000
   26       -8.824821   1.000000
   27       -8.247443   1.000000
   28       -8.179513   1.000000
   29       -8.127861   1.000000
   30       -8.125402   1.000000
   31       -8.092909   1.000000
   32       -7.837428   1.000000
   33       -7.645110   1.000000
   34       -7.532707   1.000000
   35       -7.242639   1.000000
   36       -7.126527   1.000000
   37       -7.088268   1.000000
   38       -7.019252   1.000000
   39       -6.839564   1.000000
   40       -6.774823   1.000000
   41       -6.701605   1.000000
   42       -6.629444   1.000000
   43       -6.494968   1.000000
   44       -6.452606   1.000000
   45       -6.420954   1.000000
   46       -6.355443   1.000000
   47       -6.107105   1.000000
   48       -6.044073   1.000000
   49       -5.914610   1.000000
   50       -5.789775   1.000000
   51       -5.676771   1.000000
   52       -5.640135   1.000000
   53       -5.501460   1.000000
   54       -5.434676   1.000000
   55       -5.420276   1.000000
   56       -5.324669   1.000000
   57       -5.290263   1.000000
   58       -5.272211   1.000000
   59       -5.212665   1.000000
   60       -5.150826   1.000000
   61       -5.086479   1.000000
   62       -5.073246   1.000000
   63       -4.817705   1.000000
   64       -4.756426   1.000000
   65       -4.723919   1.000000
   66       -4.636898   1.000000
   67       -4.536860   1.000000
   68       -4.495997   1.000000
   69       -4.439611   1.000000
   70       -4.345611   1.000000
   71       -4.194800   1.000000
   72       -4.082469   1.000000
   73       -4.065809   1.000000
   74       -4.025048   1.000000
   75       -3.976133   1.000000
   76       -3.919771   1.000000
   77       -3.898224   1.000000
   78       -3.883910   1.000000
   79       -3.871272   1.000000
   80       -3.813603   1.000000
   81       -3.756915   1.000000
   82       -3.708561   1.000000
   83       -3.686390   1.000000
   84       -3.662611   1.000000
   85       -3.638002   1.000000
   86       -3.610147   1.000000
   87       -3.555827   1.000000
   88       -3.512652   1.000000
   89       -3.439171   1.000000
   90       -3.413982   1.000000
   91       -3.387156   1.000000
   92       -3.266744   1.000000
   93       -3.263770   1.000000
   94       -3.175058   1.000000
   95       -3.136759   1.000000
   96       -3.003480   1.000000
   97       -2.867724   1.000000
   98       -2.823807   1.000000
   99       -2.758710   1.000000
  100       -2.718911   1.000000
  101       -2.614463   1.000000
  102       -2.529418   1.000000
  103       -2.433339   1.000000
  104       -2.308911   1.000000
  105       -2.296856   1.000000
  106       -2.241236   1.000000
  107       -2.111275   1.000000
  108       -2.082249   1.000000
  109       -1.938291   1.000000
  110       -1.915241   1.000000
  111       -1.869681   1.000000
  112       -1.777634   1.000000
  113       -1.760271   1.000000
  114       -1.701223   1.000000
  115       -1.671602   1.000000
  116       -1.612168   1.000000
  117       -1.589651   1.000000
  118       -1.532986   1.000000
  119       -1.478960   1.000000
  120       -1.353368   1.000000
  121       -1.295259   1.000000
  122       -1.239328   1.000000
  123       -1.187367   1.000000
  124       -0.862957   1.000000
  125       -0.808616   1.000000
  126       -0.675953   1.000000
  127       -0.596429   1.000000
  128       -0.539518   1.000000
  129       -0.345114   1.000000
  130       -0.321658   1.000000
  131       -0.165202   1.000000
  132        0.024503   1.000000
  133        0.134731   1.000011
  134        0.179939   1.000155
  135        0.213493   1.000836
  136        0.247848   1.003576
  137        0.249235   1.003769
  138        0.397530   0.970303
  139        0.415227   0.898429
  140        0.523089   0.116813
  141        0.573180  -0.027555
  142        0.622071  -0.027015
  143        0.702641  -0.002492
  144        0.710237  -0.001821
  145        0.714478  -0.001519
  146        0.801782  -0.000015
  147        0.875523  -0.000000
  148        0.877862  -0.000000
  149        0.991450  -0.000000
  150        1.061183  -0.000000
  151        1.126588  -0.000000
  152        1.129061  -0.000000
  153        1.155164  -0.000000
  154        1.168209  -0.000000
  155        1.294179  -0.000000
  156        1.363666  -0.000000
  157        1.374090  -0.000000
  158        1.375285  -0.000000
  159        1.410364  -0.000000
  160        1.424527  -0.000000
  161        1.489791  -0.000000
  162        1.501231  -0.000000
  163        1.513291  -0.000000
  164        1.587020  -0.000000
  165        1.604363  -0.000000
  166        1.609096  -0.000000
  167        1.648252  -0.000000
  168        1.687205  -0.000000
  169        1.730414  -0.000000
  170        1.744493  -0.000000
  171        1.778943  -0.000000
  172        1.795850  -0.000000
  173        1.844250  -0.000000