   76   76    1    1
  0.2032295E+02  0.1036705E-08  0.2428040E-08  0.6136055E-09  0.5000000E-15
   1.0000000000000000E-004
  CAR 
 Name                                    
    280     23    180

  0.3742002E-15  0.1262379E-14  0.3742002E-15  0.2222222E-01
    1      -13.791618   1.000000
    2      -12.641894   1.000000
    3      -12.641428   1.000000
    4      -12.583674   1.000000
    5      -11.675655   1.000000
    6      -11.661421   1.000000
    7      -11.419327   1.000000
    8      -11.258458   1.000000
    9      -11.247084   1.000000
   10      -11.218424   1.000000
   11      -11.091613   1.000000
   12      -10.776027   1.000000
   13      -10.719913   1.000000
   14      -10.470985   1.000000
   15      -10.450371   1.000000
   16      -10.430844   1.000000
   17      -10.245545   1.000000
   18      -10.029102   1.000000
   19       -9.935149   1.000000
   20       -9.779268   1.000000
   21       -9.675853   1.000000
   22       -9.357276   1.000000
   23       -9.291852   1.000000
   24       -9.232049   1.000000
   25       -9.211071   1.000000
   26       -8.730744   1.000000
   27       -8.655576   1.000000
   28       -8.575222   1.000000
   29       -8.185845   1.000000
   30       -7.919494   1.000000
   31       -7.879507   1.000000
   32       -7.586102   1.000000
   33       -7.546106   1.000000
   34       -7.525159   1.000000
   35       -7.481956   1.000000
   36       -7.370193   1.000000
   37       -6.961031   1.000000
   38       -6.766456   1.000000
   39       -6.512460   1.000000
   40       -6.509570   1.000000
   41       -6.443451   1.000000
   42       -6.437858   1.000000
   43       -6.423011   1.000000
   44       -6.199073   1.000000
   45       -6.180845   1.000000
   46       -6.053629   1.000000
   47       -6.023241   1.000000
   48       -5.896512   1.000000
   49       -5.877266   1.000000
   50       -5.833731   1.000000
   51       -5.827627   1.000000
   52       -5.801303   1.000000
   53       -5.551015   1.000000
   54       -5.484170   1.000000
   55       -5.401732   1.000000
   56       -5.348056   1.000000
   57       -5.273223   1.000000
   58       -5.242222   1.000000
   59       -5.085212   1.000000
   60       -5.061108   1.000000
   61       -4.968294   1.000000
   62       -4.926755   1.000000
   63       -4.848495   1.000000
   64       -4.790052   1.000000
   65       -4.470219   1.000000
   66       -4.410201   1.000000
   67       -4.293299   1.000000
   68       -4.260578   1.000000
   69       -4.195071   1.000000
   70       -4.149718   1.000000
   71       -3.872738   1.000000
   72       -3.869660   1.000000
   73       -3.776663   1.000000
   74       -3.743059   1.000000
   75       -3.723276   1.000000
   76       -3.687095   1.000000
   77       -3.675753   1.000000
   78       -3.649960   1.000000
   79       -3.619858   1.000000
   80       -3.472399   1.000000
   81       -3.424298   1.000000
   82       -3.332901   1.000000
   83       -3.329631   1.000000
   84       -3.287559   1.000000
   85       -3.234758   1.000000
   86       -3.231195   1.000000
   87       -3.225764   1.000000
   88       -3.223509   1.000000
   89       -3.208619   1.000000
   90       -3.182022   1.000000
   91       -3.118342   1.000000
   92       -3.088129   1.000000
   93       -3.032483   1.000000
   94       -2.850823   1.000000
   95       -2.797649   1.000000
   96       -2.652855   1.000000
   97       -2.651188   1.000000
   98       -2.498470   1.000000
   99       -2.425570   1.000000
  100       -2.329068   1.000000
  101       -2.248863   1.000000
  102       -2.149344   1.000000
  103       -2.061602   1.000000
  104       -2.022059   1.000000
  105       -1.978681   1.000000
  106       -1.949106   1.000000
  107       -1.834275   1.000000
  108       -1.807418   1.000000
  109       -1.785950   1.000000
  110       -1.783236   1.000000
  111       -1.697344   1.000000
  112       -1.692260   1.000000
  113       -1.602984   1.000000
  114       -1.493351   1.000000
  115       -1.477420   1.000000
  116       -1.314581   1.000000
  117       -1.299944   1.000000
  118       -1.275721   1.000000
  119       -1.207320   1.000000
  120       -1.145571   1.000000
  121       -1.110260   1.000000
  122       -1.029526   1.000000
  123       -0.812288   1.000000
  124       -0.746768   1.000000
  125       -0.519143   1.000000
  126       -0.386782   1.000000
  127       -0.310387   1.000000
  128       -0.195726   1.000000
  129       -0.174261   1.000000
  130       -0.145158   1.000000
  131       -0.044466   1.000000
  132        0.208117   1.000000
  133        0.239926   1.000000
  134        0.283303   1.000001
  135        0.564674   1.022292
  136        0.566022   1.020613
  137        0.598129   0.937197
  138        0.634249   0.726152
  139        0.651490   0.589554
  140        0.759766  -0.022486
  141        0.773676  -0.033329
  142        0.831979  -0.018617
  143        0.896546  -0.002259
  144        0.907451  -0.001424
  145        0.909015  -0.001330
  146        0.910006  -0.001273
  147        0.921716  -0.000747
  148        0.967514  -0.000069
  149        1.130757  -0.000000
  150        1.165042  -0.000000
  151        1.266181  -0.000000
  152        1.312504  -0.000000
  153        1.365563  -0.000000
  154        1.394460  -0.000000
  155        1.465707  -0.000000
  156        1.500765  -0.000000
  157        1.508256  -0.000000
  158        1.597198  -0.000000
  159        1.618201  -0.000000
  160        1.678162  -0.000000
  161        1.682573  -0.000000
  162        1.687672  -0.000000
  163        1.703942  -0.000000
  164        1.711999  -0.000000
  165        1.713197  -0.000000
  166        1.714962  -0.000000
  167        1.936099  -0.000000
  168        1.959466  -0.000000
  169        1.990996  -0.000000
  170        2.017234  -0.000000
  171        2.022263  -0.000000
  172        2.056443  -0.000000
  173        2.426292  -0.000000
  174        2.440430  -0.000000
  175        2.520956  -0.000000
  176        2.691475  -0.000000
  177        2.848860  -0.000000
  178        2.970772  -0.000000
  179        3.005101  -0.000000
  180        3.389250  -0.000000

  0.2000000E+00  0.1262379E-14  0.3742002E-15  0.4444444E-01
    1      -13.742401   1.000000
    2      -13.025372   1.000000
    3      -12.596547   1.000000
    4      -12.136988   1.000000
    5      -11.930413   1.000000
    6      -11.645006   1.000000
    7      -11.390656   1.000000
    8      -11.225644   1.000000
    9      -11.126370   1.000000
   10      -11.079664   1.000000
   11      -11.044980   1.000000
   12      -10.866278   1.000000
   13      -10.608009   1.000000
   14      -10.568098   1.000000
   15      -10.459729   1.000000
   16      -10.401459   1.000000
   17      -10.336564   1.000000
   18      -10.334606   1.000000
   19       -9.948528   1.000000
   20       -9.815676   1.000000
   21       -9.805516   1.000000
   22       -9.225276   1.000000
   23       -9.218459   1.000000
   24       -9.177599   1.000000
   25       -9.170002   1.000000
   26       -8.921420   1.000000
   27       -8.511201   1.000000
   28       -8.273645   1.000000
   29       -8.170338   1.000000
   30       -7.913820   1.000000
   31       -7.911344   1.000000
   32       -7.792819   1.000000
   33       -7.584261   1.000000
   34       -7.444382   1.000000
   35       -7.330995   1.000000
   36       -7.231626   1.000000
   37       -7.151336   1.000000
   38       -6.949681   1.000000
   39       -6.662144   1.000000
   40       -6.512228   1.000000
   41       -6.507309   1.000000
   42       -6.420559   1.000000
   43       -6.357246   1.000000
   44       -6.230607   1.000000
   45       -6.198324   1.000000
   46       -6.147670   1.000000
   47       -5.999850   1.000000
   48       -5.905448   1.000000
   49       -5.810284   1.000000
   50       -5.778270   1.000000
   51       -5.765232   1.000000
   52       -5.706859   1.000000
   53       -5.677436   1.000000
   54       -5.440129   1.000000
   55       -5.411527   1.000000
   56       -5.300945   1.000000
   57       -5.096159   1.000000
   58       -5.068423   1.000000
   59       -5.016587   1.000000
   60       -5.015010   1.000000
   61       -4.972215   1.000000
   62       -4.943982   1.000000
   63       -4.896969   1.000000
   64       -4.856497   1.000000
   65       -4.627924   1.000000
   66       -4.528465   1.000000
   67       -4.280884   1.000000
   68       -4.220761   1.000000
   69       -4.218255   1.000000
   70       -4.139361   1.000000
   71       -3.885821   1.000000
   72       -3.873452   1.000000
   73       -3.815589   1.000000
   74       -3.759843   1.000000
   75       -3.756980   1.000000
   76       -3.735493   1.000000
   77       -3.645513   1.000000
   78       -3.626957   1.000000
   79       -3.586184   1.000000
   80       -3.424108   1.000000
   81       -3.400635   1.000000
   82       -3.382624   1.000000
   83       -3.344964   1.000000
   84       -3.316553   1.000000
   85       -3.285629   1.000000
   86       -3.250362   1.000000
   87       -3.225953   1.000000
   88       -3.224059   1.000000
   89       -3.187893   1.000000
   90       -3.166879   1.000000
   91       -3.077585   1.000000
   92       -3.067942   1.000000
   93       -2.981649   1.000000
   94       -2.967177   1.000000
   95       -2.730950   1.000000
   96       -2.631167   1.000000
   97       -2.618680   1.000000
   98       -2.515740   1.000000
   99       -2.433575   1.000000
  100       -2.360805   1.000000
  101       -2.290416   1.000000
  102       -2.167244   1.000000
  103       -2.121706   1.000000
  104       -2.014431   1.000000
  105       -1.989598   1.000000
  106       -1.920517   1.000000
  107       -1.852723   1.000000
  108       -1.786905   1.000000
  109       -1.750086   1.000000
  110       -1.701319   1.000000
  111       -1.654839   1.000000
  112       -1.615868   1.000000
  113       -1.569485   1.000000
  114       -1.550507   1.000000
  115       -1.382120   1.000000
  116       -1.379243   1.000000
  117       -1.274387   1.000000
  118       -1.170219   1.000000
  119       -1.163741   1.000000
  120       -1.148951   1.000000
  121       -1.020214   1.000000
  122       -1.009252   1.000000
  123       -0.830414   1.000000
  124       -0.784915   1.000000
  125       -0.538275   1.000000
  126       -0.503600   1.000000
  127       -0.394091   1.000000
  128       -0.175799   1.000000
  129       -0.151740   1.000000
  130       -0.129640   1.000000
  131       -0.075057   1.000000
  132       -0.003784   1.000000
  133        0.082939   1.000000
  134        0.193289   1.000000
  135        0.417932   1.001494
  136        0.452799   1.005844
  137        0.542762   1.035304
  138        0.607309   0.895460
  139        0.687560   0.292381
  140        0.730912   0.044483
  141        0.794407  -0.034168
  142        0.861685  -0.008112
  143        0.942046  -0.000275
  144        0.950084  -0.000180
  145        0.983077  -0.000028
  146        0.987759  -0.000021
  147        1.038052  -0.000001
  148        1.050811  -0.000000
  149        1.081458  -0.000000
  150        1.120982  -0.000000
  151        1.236177  -0.000000
  152        1.408461  -0.000000
  153        1.414450  -0.000000
  154        1.455225  -0.000000
  155        1.480550  -0.000000
  156        1.557634  -0.000000
  157        1.562586  -0.000000
  158        1.626783  -0.000000
  159        1.644121  -0.000000
  160        1.649589  -0.000000
  161        1.691784  -0.000000
  162        1.706204  -0.000000
  163        1.732343  -0.000000
  164        1.740959  -0.000000
  165        1.744598  -0.000000
  166        1.769133  -0.000000
  167        1.914159  -0.000000
  168        1.944120  -0.000000
  169        1.969111  -0.000000
  170        2.093095  -0.000000
  171        2.097893  -0.000000
  172        2.181373  -0.000000
  173        2.255094  -0.000000
  174        2.332147  -0.000000
  175        2.538067  -0.000000
  176        2.542743  -0.000000
  177        2.636024  -0.000000
  178        2.952337  -0.000000
  179        3.330066  -0.000000
  180        3.585332   0.000000

  0.4000000E+00  0.1262379E-14  0.3742002E-15  0.4444444E-01
    1      -13.595811   1.000000
    2      -13.355007   1.000000
    3      -12.462242   1.000000
    4      -12.244094   1.000000
    5      -11.595275   1.000000
    6      -11.574595   1.000000
    7      -11.510959   1.000000
    8      -11.159931   1.000000
    9      -11.043580   1.000000
   10      -10.986502   1.000000
   11      -10.974178   1.000000
   12      -10.913210   1.000000
   13      -10.791276   1.000000
   14      -10.561291   1.000000
   15      -10.514050   1.000000
   16      -10.468037   1.000000
   17      -10.454308   1.000000
   18      -10.275041   1.000000
   19      -10.090353   1.000000
   20      -10.057110   1.000000
   21       -9.676464   1.000000
   22       -9.558427   1.000000
   23       -9.187798   1.000000
   24       -9.174334   1.000000
   25       -8.976892   1.000000
   26       -8.688322   1.000000
   27       -8.193559   1.000000
   28       -8.187910   1.000000
   29       -8.171230   1.000000
   30       -7.921296   1.000000
   31       -7.844828   1.000000
   32       -7.783839   1.000000
   33       -7.575143   1.000000
   34       -7.496035   1.000000
   35       -7.456997   1.000000
   36       -7.226361   1.000000
   37       -7.136630   1.000000
   38       -7.049709   1.000000
   39       -6.901041   1.000000
   40       -6.769994   1.000000
   41       -6.629726   1.000000
   42       -6.339477   1.000000
   43       -6.255216   1.000000
   44       -6.206774   1.000000
   45       -6.199448   1.000000
   46       -6.078166   1.000000
   47       -6.048804   1.000000
   48       -5.942350   1.000000
   49       -5.876543   1.000000
   50       -5.705643   1.000000
   51       -5.614120   1.000000
   52       -5.582446   1.000000
   53       -5.538187   1.000000
   54       -5.442008   1.000000
   55       -5.428235   1.000000
   56       -5.389309   1.000000
   57       -5.176787   1.000000
   58       -5.173758   1.000000
   59       -5.026712   1.000000
   60       -4.930104   1.000000
   61       -4.889625   1.000000
   62       -4.845093   1.000000
   63       -4.783296   1.000000
   64       -4.631023   1.000000
   65       -4.609708   1.000000
   66       -4.511033   1.000000
   67       -4.413448   1.000000
   68       -4.360032   1.000000
   69       -4.244009   1.000000
   70       -4.106728   1.000000
   71       -4.045734   1.000000
   72       -3.990151   1.000000
   73       -3.910270   1.000000
   74       -3.800736   1.000000
   75       -3.732997   1.000000
   76       -3.698704   1.000000
   77       -3.612916   1.000000
   78       -3.541451   1.000000
   79       -3.523623   1.000000
   80       -3.509749   1.000000
   81       -3.487503   1.000000
   82       -3.461039   1.000000
   83       -3.398589   1.000000
   84       -3.394336   1.000000
   85       -3.351717   1.000000
   86       -3.241055   1.000000
   87       -3.206690   1.000000
   88       -3.150892   1.000000
   89       -3.129291   1.000000
   90       -3.082145   1.000000
   91       -3.035895   1.000000
   92       -2.984604   1.000000
   93       -2.942467   1.000000
   94       -2.797308   1.000000
   95       -2.777123   1.000000
   96       -2.755916   1.000000
   97       -2.676995   1.000000
   98       -2.558855   1.000000
   99       -2.409744   1.000000
  100       -2.399118   1.000000
  101       -2.253683   1.000000
  102       -2.180681   1.000000
  103       -2.115133   1.000000
  104       -2.091195   1.000000
  105       -2.039146   1.000000
  106       -1.894317   1.000000
  107       -1.887997   1.000000
  108       -1.744041   1.000000
  109       -1.681653   1.000000
  110       -1.659375   1.000000
  111       -1.654330   1.000000
  112       -1.586604   1.000000
  113       -1.472935   1.000000
  114       -1.431218   1.000000
  115       -1.330795   1.000000
  116       -1.319040   1.000000
  117       -1.265597   1.000000
  118       -1.123165   1.000000
  119       -1.121563   1.000000
  120       -0.985509   1.000000
  121       -0.863071   1.000000
  122       -0.835136   1.000000
  123       -0.809635   1.000000
  124       -0.766298   1.000000
  125       -0.717656   1.000000
  126       -0.628348   1.000000
  127       -0.508114   1.000000
  128       -0.433506   1.000000
  129       -0.429368   1.000000
  130       -0.276781   1.000000
  131       -0.134563   1.000000
  132       -0.117903   1.000000
  133        0.097044   1.000000
  134        0.209211   1.000000
  135        0.305670   1.000003
  136        0.357807   1.000073
  137        0.527064   1.033409
  138        0.592575   0.958341
  139        0.613316   0.863562
  140        0.632758   0.737144
  141        0.759190  -0.021791
  142        0.860531  -0.008418
  143        0.926093  -0.000607
  144        0.966812  -0.000072
  145        0.992670  -0.000015
  146        1.018638  -0.000003
  147        1.022949  -0.000002
  148        1.133174  -0.000000
  149        1.154025  -0.000000
  150        1.285209  -0.000000
  151        1.289551  -0.000000
  152        1.421169  -0.000000
  153        1.463184  -0.000000
  154        1.487802  -0.000000
  155        1.520272  -0.000000
  156        1.580342  -0.000000
  157        1.672636  -0.000000
  158        1.730499  -0.000000
  159        1.741099  -0.000000
  160        1.759278  -0.000000
  161        1.775463  -0.000000
  162        1.789765  -0.000000
  163        1.798610  -0.000000
  164        1.817249  -0.000000
  165        1.838870  -0.000000
  166        1.903812  -0.000000
  167        1.921979  -0.000000
  168        1.929211  -0.000000
  169        1.965626  -0.000000
  170        1.992835  -0.000000
  171        2.009842  -0.000000
  172        2.065333  -0.000000
  173        2.091694  -0.000000
  174        2.148464  -0.000000
  175        2.266663  -0.000000
  176        2.493182  -0.000000
  177        2.765579  -0.000000
  178        2.907999  -0.000000
  179        3.190121  -0.000000
  180        3.413414   0.000000

  0.3742002E-15  0.1262379E-14  0.1111111E+00  0.4444444E-01
    1      -13.746295   1.000000
    2      -12.606663   1.000000
    3      -12.603683   1.000000
    4      -12.549251   1.000000
    5      -11.766789   1.000000
    6      -11.645426   1.000000
    7      -11.391947   1.000000
    8      -11.293878   1.000000
    9      -11.265078   1.000000
   10      -11.242872   1.000000
   11      -11.144517   1.000000
   12      -10.784778   1.000000
   13      -10.738962   1.000000
   14      -10.489181   1.000000
   15      -10.473660   1.000000
   16      -10.421587   1.000000
   17      -10.221777   1.000000
   18      -10.005839   1.000000
   19       -9.912372   1.000000
   20       -9.751969   1.000000
   21       -9.677884   1.000000
   22       -9.388272   1.000000
   23       -9.272576   1.000000
   24       -9.259161   1.000000
   25       -9.173982   1.000000
   26       -8.711864   1.000000
   27       -8.678807   1.000000
   28       -8.604244   1.000000
   29       -8.180577   1.000000
   30       -7.900045   1.000000
   31       -7.752825   1.000000
   32       -7.640273   1.000000
   33       -7.567026   1.000000
   34       -7.536595   1.000000
   35       -7.497258   1.000000
   36       -7.362210   1.000000
   37       -7.066562   1.000000
   38       -6.740703   1.000000
   39       -6.572610   1.000000
   40       -6.502572   1.000000
   41       -6.381953   1.000000
   42       -6.365506   1.000000
   43       -6.360803   1.000000
   44       -6.182536   1.000000
   45       -6.170860   1.000000
   46       -6.055327   1.000000
   47       -6.053433   1.000000
   48       -5.930824   1.000000
   49       -5.895557   1.000000
   50       -5.873338   1.000000
   51       -5.823327   1.000000
   52       -5.808335   1.000000
   53       -5.485315   1.000000
   54       -5.466080   1.000000
   55       -5.382084   1.000000
   56       -5.361317   1.000000
   57       -5.301953   1.000000
   58       -5.139117   1.000000
   59       -5.024944   1.000000
   60       -5.015590   1.000000
   61       -4.974059   1.000000
   62       -4.905318   1.000000
   63       -4.844321   1.000000
   64       -4.746733   1.000000
   65       -4.421069   1.000000
   66       -4.380642   1.000000
   67       -4.284315   1.000000
   68       -4.223546   1.000000
   69       -4.192017   1.000000
   70       -4.145970   1.000000
   71       -3.866982   1.000000
   72       -3.855305   1.000000
   73       -3.802559   1.000000
   74       -3.757209   1.000000
   75       -3.744030   1.000000
   76       -3.706282   1.000000
   77       -3.674762   1.000000
   78       -3.647618   1.000000
   79       -3.645509   1.000000
   80       -3.544391   1.000000
   81       -3.535669   1.000000
   82       -3.504302   1.000000
   83       -3.401609   1.000000
   84       -3.392636   1.000000
   85       -3.371766   1.000000
   86       -3.285880   1.000000
   87       -3.274123   1.000000
   88       -3.244810   1.000000
   89       -3.192091   1.000000
   90       -3.191376   1.000000
   91       -3.090503   1.000000
   92       -3.075746   1.000000
   93       -2.964092   1.000000
   94       -2.847402   1.000000
   95       -2.710402   1.000000
   96       -2.655531   1.000000
   97       -2.631463   1.000000
   98       -2.433849   1.000000
   99       -2.412030   1.000000
  100       -2.258295   1.000000
  101       -2.181350   1.000000
  102       -2.179555   1.000000
  103       -2.149748   1.000000
  104       -2.120110   1.000000
  105       -1.991471   1.000000
  106       -1.958978   1.000000
  107       -1.853392   1.000000
  108       -1.786018   1.000000
  109       -1.756116   1.000000
  110       -1.727199   1.000000
  111       -1.703811   1.000000
  112       -1.664978   1.000000
  113       -1.591389   1.000000
  114       -1.551000   1.000000
  115       -1.419802   1.000000
  116       -1.380143   1.000000
  117       -1.315547   1.000000
  118       -1.308113   1.000000
  119       -1.234849   1.000000
  120       -1.057481   1.000000
  121       -1.053680   1.000000
  122       -0.988434   1.000000
  123       -0.787470   1.000000
  124       -0.706368   1.000000
  125       -0.610470   1.000000
  126       -0.392632   1.000000
  127       -0.355258   1.000000
  128       -0.272699   1.000000
  129       -0.229960   1.000000
  130       -0.124618   1.000000
  131        0.025270   1.000000
  132        0.092553   1.000000
  133        0.162349   1.000000
  134        0.376031   1.000199
  135        0.536511   1.035311
  136        0.541359   1.035413
  137        0.562947   1.024268
  138        0.575304   1.005527
  139        0.683012   0.327548
  140        0.692810   0.253474
  141        0.719415   0.092581
  142        0.736658   0.025332
  143        0.744713   0.003656
  144        0.911020  -0.001217
  145        0.916599  -0.000947
  146        0.933530  -0.000422
  147        1.093715  -0.000000
  148        1.123415  -0.000000
  149        1.189168  -0.000000
  150        1.258480  -0.000000
  151        1.285728  -0.000000
  152        1.319870  -0.000000
  153        1.381072  -0.000000
  154        1.416885  -0.000000
  155        1.437663  -0.000000
  156        1.527081  -0.000000
  157        1.537208  -0.000000
  158        1.554225  -0.000000
  159        1.606740  -0.000000
  160        1.649807  -0.000000
  161        1.652764  -0.000000
  162        1.661543  -0.000000
  163        1.727124  -0.000000
  164        1.735256  -0.000000
  165        1.790580  -0.000000
  166        1.847246  -0.000000
  167        1.860294  -0.000000
  168        1.912485  -0.000000
  169        1.932503  -0.000000
  170        1.983857  -0.000000
  171        1.998854  -0.000000
  172        2.052284  -0.000000
  173        2.128568  -0.000000
  174        2.171725  -0.000000
  175        2.194181  -0.000000
  176        2.482895  -0.000000
  177        2.516985  -0.000000
  178        2.736115  -0.000000
  179        3.213214  -0.000000
  180        4.303803   0.000000

  0.2000000E+00  0.1262379E-14  0.1111111E+00  0.4444444E-01
    1      -13.697478   1.000000
    2      -12.986712   1.000000
    3      -12.558857   1.000000
    4      -12.107374   1.000000
    5      -11.898625   1.000000
    6      -11.747514   1.000000
    7      -11.452777   1.000000
    8      -11.211322   1.000000
    9      -11.128753   1.000000
   10      -11.102071   1.000000
   11      -11.073611   1.000000
   12      -10.893371   1.000000
   13      -10.611694   1.000000
   14      -10.564163   1.000000
   15      -10.479349   1.000000
   16      -10.411287   1.000000
   17      -10.322066   1.000000
   18      -10.311387   1.000000
   19       -9.941267   1.000000
   20       -9.812238   1.000000
   21       -9.789439   1.000000
   22       -9.244188   1.000000
   23       -9.222130   1.000000
   24       -9.161259   1.000000
   25       -9.139129   1.000000
   26       -8.926682   1.000000
   27       -8.532314   1.000000
   28       -8.269606   1.000000
   29       -8.165668   1.000000
   30       -7.924506   1.000000
   31       -7.893851   1.000000
   32       -7.662811   1.000000
   33       -7.648106   1.000000
   34       -7.493946   1.000000
   35       -7.329638   1.000000
   36       -7.217497   1.000000
   37       -7.206358   1.000000
   38       -6.864717   1.000000
   39       -6.660114   1.000000
   40       -6.568806   1.000000
   41       -6.496784   1.000000
   42       -6.398577   1.000000
   43       -6.307607   1.000000
   44       -6.245174   1.000000
   45       -6.197283   1.000000
   46       -6.194655   1.000000
   47       -6.034215   1.000000
   48       -6.002012   1.000000
   49       -5.833630   1.000000
   50       -5.823165   1.000000
   51       -5.673481   1.000000
   52       -5.620746   1.000000
   53       -5.582463   1.000000
   54       -5.468132   1.000000
   55       -5.398264   1.000000
   56       -5.318788   1.000000
   57       -5.099014   1.000000
   58       -5.034582   1.000000
   59       -5.007022   1.000000
   60       -4.976625   1.000000
   61       -4.940149   1.000000
   62       -4.887022   1.000000
   63       -4.853740   1.000000
   64       -4.840101   1.000000
   65       -4.600051   1.000000
   66       -4.474522   1.000000
   67       -4.272907   1.000000
   68       -4.208395   1.000000
   69       -4.177497   1.000000
   70       -4.116491   1.000000
   71       -3.885892   1.000000
   72       -3.860674   1.000000
   73       -3.815663   1.000000
   74       -3.802217   1.000000
   75       -3.737897   1.000000
   76       -3.721695   1.000000
   77       -3.694908   1.000000
   78       -3.659522   1.000000
   79       -3.650944   1.000000
   80       -3.549466   1.000000
   81       -3.491313   1.000000
   82       -3.431622   1.000000
   83       -3.427844   1.000000
   84       -3.387329   1.000000
   85       -3.367251   1.000000
   86       -3.307413   1.000000
   87       -3.303270   1.000000
   88       -3.220414   1.000000
   89       -3.150822   1.000000
   90       -3.143146   1.000000
   91       -3.110997   1.000000
   92       -2.994020   1.000000
   93       -2.970822   1.000000
   94       -2.934497   1.000000
   95       -2.696742   1.000000
   96       -2.628927   1.000000
   97       -2.576030   1.000000
   98       -2.528196   1.000000
   99       -2.417459   1.000000
  100       -2.396212   1.000000
  101       -2.229302   1.000000
  102       -2.153666   1.000000
  103       -2.151283   1.000000
  104       -2.041421   1.000000
  105       -1.985020   1.000000
  106       -1.950831   1.000000
  107       -1.883994   1.000000
  108       -1.843584   1.000000
  109       -1.716508   1.000000
  110       -1.669330   1.000000
  111       -1.651591   1.000000
  112       -1.594411   1.000000
  113       -1.529529   1.000000
  114       -1.493919   1.000000
  115       -1.467619   1.000000
  116       -1.362395   1.000000
  117       -1.345664   1.000000
  118       -1.274443   1.000000
  119       -1.136024   1.000000
  120       -1.101793   1.000000
  121       -1.040895   1.000000
  122       -0.987449   1.000000
  123       -0.854744   1.000000
  124       -0.768294   1.000000
  125       -0.614890   1.000000
  126       -0.498327   1.000000
  127       -0.458531   1.000000
  128       -0.339392   1.000000
  129       -0.115154   1.000000
  130       -0.093980   1.000000
  131        0.005508   1.000000
  132        0.047535   1.000000
  133        0.198554   1.000000
  134        0.379885   1.000243
  135        0.411509   1.001126
  136        0.452806   1.005845
  137        0.470237   1.010294
  138        0.504476   1.024148
  139        0.618367   0.834000
  140        0.709932   0.142262
  141        0.774213  -0.033546
  142        0.808192  -0.029370
  143        0.834366  -0.017587
  144        0.918835  -0.000854
  145        0.937118  -0.000353
  146        0.957742  -0.000119
  147        0.964270  -0.000083
  148        1.194695  -0.000000
  149        1.231391  -0.000000
  150        1.270605  -0.000000
  151        1.296414  -0.000000
  152        1.318428  -0.000000
  153        1.366185  -0.000000
  154        1.489390  -0.000000
  155        1.537324  -0.000000
  156        1.567237  -0.000000
  157        1.584898  -0.000000
  158        1.605825  -0.000000
  159        1.633013  -0.000000
  160        1.649140  -0.000000
  161        1.665842  -0.000000
  162        1.708162  -0.000000
  163        1.710421  -0.000000
  164        1.765094  -0.000000
  165        1.814895  -0.000000
  166        1.821672  -0.000000
  167        1.860639  -0.000000
  168        1.904321  -0.000000
  169        1.917027  -0.000000
  170        1.966319  -0.000000
  171        1.983634  -0.000000
  172        2.049356  -0.000000
  173        2.113712  -0.000000