 running on   72 total cores
 distrk:  each k-point on   72 cores,    1 groups
 distr:  one band on   12 cores,    6 groups
 using from now: INCAR     
 vasp.5.4.4.18Apr17-6-g9f103f2a35 (build Dec  7 2020 12:43:57) complex           
 POSCAR found type information on POSCAR  Mo V  B  H 
 POSCAR found :  4 types and      76 ions
 scaLAPACK will be used

 ----------------------------------------------------------------------------- 
|                                                                             |
|  ADVICE TO THIS USER RUNNING 'VASP/VAMP'   (HEAR YOUR MASTER'S VOICE ...):  |
|                                                                             |
|      You enforced a specific xc-type in the INCAR file,                     |
|      a different type was found on the POTCAR file                          |
|          I HOPE YOU KNOW, WHAT YOU ARE  DOING                               |
|                                                                             |
 ----------------------------------------------------------------------------- 

 LDA part: xc-table for Pade appr. of Perdew
 POSCAR, INCAR and KPOINTS ok, starting setup
 resort distribution
 resort distribution
 resort distribution
 resort distribution
 resort distribution
 resort distribution
 resort distribution
 resort distribution
 resort distribution
 resort distribution
 resort distribution
 resort distribution
 resort distribution
 resort distribution
 resort distribution
 resort distribution
 resort distribution
 resort distribution
 resort distribution
 resort distribution
 resort distribution
 resort distribution
 resort distribution
 resort distribution
 resort distribution
 resort distribution
 resort distribution
 resort distribution
 resort distribution
 resort distribution
 resort distribution
 resort distribution
 resort distribution
 resort distribution
 resort distribution
 resort distribution
 resort distribution
 resort distribution
 resort distribution
 resort distribution
 resort distribution
 resort distribution
 resort distribution
 resort distribution
 resort distribution
 resort distribution
 resort distribution
 resort distribution
 resort distribution
 resort distribution
 resort distribution
 resort distribution
 resort distribution
 resort distribution
 resort distribution
 resort distribution
 resort distribution
 resort distribution
 resort distribution
 resort distribution
 resort distribution
 resort distribution
 resort distribution
 resort distribution
 resort distribution
 resort distribution
 resort distribution
 resort distribution
 resort distribution
 resort distribution
 resort distribution
 resort distribution
 FFT: planning ...
 WAVECAR not read
 augmentation electrons   280.02614693929331     
 soft         electrons   0.0000000000000000     
 augmentation electrons   280.02614693929331     
 soft         electrons   0.0000000000000000     
 augmentation electrons   280.02614693929331     
 soft         electrons   0.0000000000000000     
 augmentation electrons   280.02614693929331     
 soft         electrons   0.0000000000000000     
 augmentation electrons   280.02614693929331     
 soft         electrons   0.0000000000000000     
 augmentation electrons   280.02614693929331     
 soft         electrons   0.0000000000000000     
 augmentation electrons   280.02614693929331     
 soft         electrons   0.0000000000000000     
 augmentation electrons   280.02614693929331     
 soft         electrons   0.0000000000000000     
 augmentation electrons   280.02614693929331     
 soft         electrons   0.0000000000000000     
 augmentation electrons   280.02614693929331     
 soft         electrons   0.0000000000000000     
 augmentation electrons   280.02614693929331     
 soft         electrons   0.0000000000000000     
 augmentation electrons   280.02614693929331     
 soft         electrons   0.0000000000000000     
 augmentation electrons   280.02614693929331     
 soft         electrons   0.0000000000000000     
 augmentation electrons   280.02614693929331     
 soft         electrons   0.0000000000000000     
 augmentation electrons   280.02614693929331     
 soft         electrons   0.0000000000000000     
 augmentation electrons   280.02614693929331     
 soft         electrons   0.0000000000000000     
 augmentation electrons   280.02614693929331     
 soft         electrons   0.0000000000000000     
 augmentation electrons   280.02614693929331     
 soft         electrons   0.0000000000000000     
 augmentation electrons   280.02614693929331     
 soft         electrons   0.0000000000000000     
 augmentation electrons   280.02614693929331     
 soft         electrons   0.0000000000000000     
 augmentation electrons   280.02614693929331     
 soft         electrons   0.0000000000000000     
 augmentation electrons   280.02614693929331     
 soft         electrons   0.0000000000000000     
 augmentation electrons   280.02614693929331     
 soft         electrons   0.0000000000000000     
 augmentation electrons   280.02614693929331     
 soft         electrons   0.0000000000000000     
 augmentation electrons   280.02614693929331     
 soft         electrons   0.0000000000000000     
 augmentation electrons   280.02614693929331     
 soft         electrons   0.0000000000000000     
 total        electrons   280.02614693929331     
 augmentation electrons   280.02614693929331     
 soft         electrons   0.0000000000000000     
 total        electrons   280.02614693929331     
 augmentation electrons   280.02614693929331     
 soft         electrons   0.0000000000000000     
 total        electrons   280.02614693929331     
 augmentation electrons   280.02614693929331     
 soft         electrons   0.0000000000000000     
 total        electrons   280.02614693929331     
 augmentation electrons   280.02614693929331     
 soft         electrons   0.0000000000000000     
 total        electrons   280.02614693929331     
 augmentation electrons   280.02614693929331     
 soft         electrons   0.0000000000000000     
 total        electrons   280.02614693929331     
 augmentation electrons   280.02614693929331     
 soft         electrons   0.0000000000000000     
 total        electrons   280.02614693929331     
 total        electrons   280.02614693929331     
 total        electrons   280.02614693929331     
 augmentation electrons   280.02614693929331     
 soft         electrons   0.0000000000000000     
 total        electrons   280.02614693929331     
 augmentation electrons   280.02614693929331     
 soft         electrons   0.0000000000000000     
 total        electrons   280.02614693929331     
 total        electrons   280.02614693929331     
 total        electrons   280.02614693929331     
 augmentation electrons   280.02614693929331     
 soft         electrons   0.0000000000000000     
 total        electrons   280.02614693929331     
 total        electrons   280.02614693929331     
 augmentation electrons   280.02614693929331     
 soft         electrons   0.0000000000000000     
 total        electrons   280.02614693929331     
 total        electrons   280.02614693929331     
 total        electrons   280.02614693929331     
 augmentation electrons   280.02614693929331     
 soft         electrons   0.0000000000000000     
 total        electrons   280.02614693929331     
 augmentation electrons   280.02614693929331     
 soft         electrons   0.0000000000000000     
 total        electrons   280.02614693929331     
 augmentation electrons   280.02614693929331     
 soft         electrons   0.0000000000000000     
 total        electrons   280.02614693929331     
 augmentation electrons   280.02614693929331     
 soft         electrons   0.0000000000000000     
 total        electrons   280.02614693929331     
 augmentation electrons   280.02614693929331     
 soft         electrons   0.0000000000000000     
 total        electrons   280.02614693929331     
 augmentation electrons   280.02614693929331     
 soft         electrons   0.0000000000000000     
 total        electrons   280.02614693929331     
 augmentation electrons   280.02614693929331     
 soft         electrons   0.0000000000000000     
 total        electrons   280.02614693929331     
 augmentation electrons   280.02614693929331     
 soft         electrons   0.0000000000000000     
 total        electrons   280.02614693929331     
 total        electrons   280.02614693929331     
 augmentation electrons   280.02614693929331     
 soft         electrons   0.0000000000000000     
 total        electrons   280.02614693929331     
 augmentation electrons   280.02614693929331     
 soft         electrons   0.0000000000000000     
 total        electrons   280.02614693929331     
 augmentation electrons   280.02614693929331     
 soft         electrons   0.0000000000000000     
 total        electrons   280.02614693929331     
 augmentation electrons   280.02614693929331     
 soft         electrons   0.0000000000000000     
 total        electrons   280.02614693929331     
 total        electrons   280.02614693929331     
 total        electrons   280.02614693929331     
 total        electrons   280.02614693929331     
 augmentation electrons   280.02614693929331     
 soft         electrons   0.0000000000000000     
 total        electrons   280.02614693929331     
 augmentation electrons   280.02614693929331     
 soft         electrons   0.0000000000000000     
 total        electrons   280.02614693929331     
 augmentation electrons   280.02614693929331     
 soft         electrons   0.0000000000000000     
 total        electrons   280.02614693929331     
 augmentation electrons   280.02614693929331     
 soft         electrons   0.0000000000000000     
 total        electrons   280.02614693929331     
 augmentation electrons   280.02614693929331     
 soft         electrons   0.0000000000000000     
 total        electrons   280.02614693929331     
 augmentation electrons   280.02614693929331     
 soft         electrons   0.0000000000000000     
 total        electrons   280.02614693929331     
 augmentation electrons   280.02614693929331     
 soft         electrons   0.0000000000000000     
 total        electrons   280.02614693929331     
 augmentation electrons   280.02614693929331     
 soft         electrons   0.0000000000000000     
 total        electrons   280.02614693929331     
 augmentation electrons   280.02614693929331     
 soft         electrons   0.0000000000000000     
 total        electrons   280.02614693929331     
 augmentation electrons   280.02614693929331     
 soft         electrons   0.0000000000000000     
 total        electrons   280.02614693929331     
 augmentation electrons   280.02614693929331     
 soft         electrons   0.0000000000000000     
 total        electrons   280.02614693929331     
 augmentation electrons   280.02614693929331     
 soft         electrons   0.0000000000000000     
 total        electrons   280.02614693929331     
 total        electrons   280.02614693929331     
 augmentation electrons   280.02614693929331     
 soft         electrons   0.0000000000000000     
 total        electrons   280.02614693929331     
 total        electrons   280.02614693929331     
 augmentation electrons   280.02614693929331     
 soft         electrons   0.0000000000000000     
 total        electrons   280.02614693929331     
 total        electrons   280.02614693929331     
 total        electrons   280.02614693929331     
 total        electrons   280.02614693929331     
 total        electrons   280.02614693929331     
 augmentation electrons   280.02614693929331     
 soft         electrons   0.0000000000000000     
 total        electrons   280.02614693929331     
 augmentation electrons   280.02614693929331     
 soft         electrons   0.0000000000000000     
 total        electrons   280.02614693929331     
 total        electrons   280.02614693929331     
 augmentation electrons   280.02614693929331     
 soft         electrons   0.0000000000000000     
 total        electrons   280.02614693929331     
 total        electrons   280.02614693929331     
 augmentation electrons   280.02614693929331     
 soft         electrons   0.0000000000000000     
 total        electrons   280.02614693929331     
 total        electrons   280.02614693929331     
 total        electrons   280.02614693929331     
 total        electrons   280.02614693929331     
 augmentation electrons   280.02614693929331     
 soft         electrons   0.0000000000000000     
 total        electrons   280.02614693929331     
 augmentation electrons   280.02614693929331     
 soft         electrons   0.0000000000000000     
 total        electrons   280.02614693929331     
 augmentation electrons   280.02614693929331     
 soft         electrons   0.0000000000000000     
 total        electrons   280.02614693929331     
 augmentation electrons   280.02614693929331     
 soft         electrons   0.0000000000000000     
 total        electrons   280.02614693929331     
 total        electrons   280.02614693929331     
 total        electrons   280.02614693929331     
 total        electrons   280.02614693929331     
 augmentation electrons   280.02614693929331     
 soft         electrons   0.0000000000000000     
 total        electrons   280.02614693929331     
 augmentation electrons   280.02614693929331     
 soft         electrons   0.0000000000000000     
 total        electrons   280.02614693929331     
 augmentation electrons   864.17172981569820     
 soft         electrons   0.0000000000000000     
 augmentation electrons   864.17172981569820     
 soft         electrons   0.0000000000000000     
 augmentation electrons   864.17172981569820     
 soft         electrons   0.0000000000000000     
 augmentation electrons   864.17172981569820     
 soft         electrons   0.0000000000000000     
 augmentation electrons   864.17172981569820     
 soft         electrons   0.0000000000000000     
 augmentation electrons   864.17172981569820     
 soft         electrons   0.0000000000000000     
 augmentation electrons   864.17172981569820     
 soft         electrons   0.0000000000000000     
 augmentation electrons   864.17172981569820     
 soft         electrons   0.0000000000000000     
 augmentation electrons   864.17172981569820     
 soft         electrons   0.0000000000000000     
 augmentation electrons   864.17172981569820     
 soft         electrons   0.0000000000000000     
 augmentation electrons   864.17172981569820     
 soft         electrons   0.0000000000000000     
 augmentation electrons   864.17172981569820     
 soft         electrons   0.0000000000000000     
 augmentation electrons   864.17172981569820     
 soft         electrons   0.0000000000000000     
 augmentation electrons   864.17172981569820     
 soft         electrons   0.0000000000000000     
 augmentation electrons   864.17172981569820     
 soft         electrons   0.0000000000000000     
 augmentation electrons   864.17172981569820     
 soft         electrons   0.0000000000000000     
 augmentation electrons   864.17172981569820     
 soft         electrons   0.0000000000000000     
 augmentation electrons   864.17172981569820     
 soft         electrons   0.0000000000000000     
 augmentation electrons   864.17172981569820     
 soft         electrons   0.0000000000000000     
 augmentation electrons   864.17172981569820     
 soft         electrons   0.0000000000000000     
 augmentation electrons   864.17172981569820     
 soft         electrons   0.0000000000000000     
 augmentation electrons   864.17172981569820     
 soft         electrons   0.0000000000000000     
 augmentation electrons   864.17172981569820     
 soft         electrons   0.0000000000000000     
 augmentation electrons   864.17172981569820     
 soft         electrons   0.0000000000000000     
 augmentation electrons   864.17172981569820     
 augmentation electrons   864.17172981569820     
 soft         electrons   0.0000000000000000     
 augmentation electrons   864.17172981569820     
 soft         electrons   0.0000000000000000     
 augmentation electrons   864.17172981569820     
 soft         electrons   0.0000000000000000     
 augmentation electrons   864.17172981569820     
 soft         electrons   0.0000000000000000     
 augmentation electrons   864.17172981569820     
 soft         electrons   0.0000000000000000     
 augmentation electrons   864.17172981569820     
 soft         electrons   0.0000000000000000     
 augmentation electrons   864.17172981569820     
 soft         electrons   0.0000000000000000     
 augmentation electrons   864.17172981569820     
 soft         electrons   0.0000000000000000     
 augmentation electrons   864.17172981569820     
 soft         electrons   0.0000000000000000     
 augmentation electrons   864.17172981569820     
 soft         electrons   0.0000000000000000     
 augmentation electrons   864.17172981569820     
 soft         electrons   0.0000000000000000     
 augmentation electrons   864.17172981569820     
 soft         electrons   0.0000000000000000     
 augmentation electrons   864.17172981569820     
 soft         electrons   0.0000000000000000     
 augmentation electrons   864.17172981569820     
 soft         electrons   0.0000000000000000     
 augmentation electrons   864.17172981569820     
 soft         electrons   0.0000000000000000     
 augmentation electrons   864.17172981569820     
 soft         electrons   0.0000000000000000     
 augmentation electrons   864.17172981569820     
 soft         electrons   0.0000000000000000     
 augmentation electrons   864.17172981569820     
 soft         electrons   0.0000000000000000     
 augmentation electrons   864.17172981569820     
 soft         electrons   0.0000000000000000     
 augmentation electrons   864.17172981569820     
 soft         electrons   0.0000000000000000     
 augmentation electrons   864.17172981569820     
 soft         electrons   0.0000000000000000     
 augmentation electrons   864.17172981569820     
 soft         electrons   0.0000000000000000     
 augmentation electrons   864.17172981569820     
 soft         electrons   0.0000000000000000     
 augmentation electrons   864.17172981569820     
 soft         electrons   0.0000000000000000     
 augmentation electrons   864.17172981569820     
 soft         electrons   0.0000000000000000     
 augmentation electrons   864.17172981569820     
 soft         electrons   0.0000000000000000     
 augmentation electrons   864.17172981569820     
 soft         electrons   0.0000000000000000     
 augmentation electrons   864.17172981569820     
 soft         electrons   0.0000000000000000     
 augmentation electrons   864.17172981569820     
 soft         electrons   0.0000000000000000     
 augmentation electrons   864.17172981569820     
 soft         electrons   0.0000000000000000     
 augmentation electrons   864.17172981569820     
 soft         electrons   0.0000000000000000     
 augmentation electrons   864.17172981569820     
 soft         electrons   0.0000000000000000     
 augmentation electrons   864.17172981569820     
 soft         electrons   0.0000000000000000     
 augmentation electrons   864.17172981569820     
 soft         electrons   0.0000000000000000     
 augmentation electrons   864.17172981569820     
 soft         electrons   0.0000000000000000     
 augmentation electrons   864.17172981569820     
 soft         electrons   0.0000000000000000     
 augmentation electrons   864.17172981569820     
 soft         electrons   0.0000000000000000     
 augmentation electrons   864.17172981569820     
 soft         electrons   0.0000000000000000     
 augmentation electrons   864.17172981569820     
 soft         electrons   0.0000000000000000     
 augmentation electrons   864.17172981569820     
 soft         electrons   0.0000000000000000     
 augmentation electrons   864.17172981569820     
 soft         electrons   0.0000000000000000     
 augmentation electrons   864.17172981569820     
 soft         electrons   0.0000000000000000     
 augmentation electrons   864.17172981569820     
 soft         electrons   0.0000000000000000     
 augmentation electrons   864.17172981569820     
 soft         electrons   0.0000000000000000     
 augmentation electrons   864.17172981569820     
 soft         electrons   0.0000000000000000     
 augmentation electrons   864.17172981569820     
 soft         electrons   0.0000000000000000     
 augmentation electrons   864.17172981569820     
 soft         electrons   0.0000000000000000     
 soft         electrons   0.0000000000000000     
 total        electrons   864.17172981569820     
 total        electrons   864.17172981569820     
 total        electrons   864.17172981569820     
 total        electrons   864.17172981569820     
 total        electrons   864.17172981569820     
 total        electrons   864.17172981569820     
 total        electrons   864.17172981569820     
 total        electrons   864.17172981569820     
 total        electrons   864.17172981569820     
 total        electrons   864.17172981569820     
 total        electrons   864.17172981569820     
 total        electrons   864.17172981569820     
 total        electrons   864.17172981569820     
 total        electrons   864.17172981569820     
 total        electrons   864.17172981569820     
 total        electrons   864.17172981569820     
 total        electrons   864.17172981569820     
 total        electrons   864.17172981569820     
 total        electrons   864.17172981569820     
 total        electrons   864.17172981569820     
 total        electrons   864.17172981569820     
 total        electrons   864.17172981569820     
 total        electrons   864.17172981569820     
 total        electrons   864.17172981569820     
 total        electrons   864.17172981569820     
 total        electrons   864.17172981569820     
 total        electrons   864.17172981569820     
 total        electrons   864.17172981569820     
 total        electrons   864.17172981569820     
 total        electrons   864.17172981569820     
 total        electrons   864.17172981569820     
 total        electrons   864.17172981569820     
 total        electrons   864.17172981569820     
 total        electrons   864.17172981569820     
 total        electrons   864.17172981569820     
 total        electrons   864.17172981569820     
 total        electrons   864.17172981569820     
 total        electrons   864.17172981569820     
 total        electrons   864.17172981569820     
 total        electrons   864.17172981569820     
 total        electrons   864.17172981569820     
 total        electrons   864.17172981569820     
 total        electrons   864.17172981569820     
 total        electrons   864.17172981569820     
 total        electrons   864.17172981569820     
 total        electrons   864.17172981569820     
 total        electrons   864.17172981569820     
 total        electrons   864.17172981569820     
 total        electrons   864.17172981569820     
 total        electrons   864.17172981569820     
 total        electrons   864.17172981569820     
 total        electrons   864.17172981569820     
 total        electrons   864.17172981569820     
 total        electrons   864.17172981569820     
 total        electrons   864.17172981569820     
 total        electrons   864.17172981569820     
 total        electrons   864.17172981569820     
 total        electrons   864.17172981569820     
 total        electrons   864.17172981569820     
 total        electrons   864.17172981569820     
 total        electrons   864.17172981569820     
 total        electrons   864.17172981569820     
 total        electrons   864.17172981569820     
 total        electrons   864.17172981569820     
 total        electrons   864.17172981569820     
 total        electrons   864.17172981569820     
 total        electrons   864.17172981569820     
 total        electrons   864.17172981569820     
 total        electrons   864.17172981569820     
 total        electrons   864.17172981569820     
 total        electrons   864.17172981569820     
 total        electrons   864.17172981569820     
 entering main loop
       N       E                     dE             d eps       ncg     rms          rms(c)
DAV:   1     0.309474320166E+04    0.30947E+04   -0.96417E+04  8280   0.131E+03
DAV:   2     0.955133208556E+02   -0.29992E+04   -0.27873E+04  8808   0.339E+02
DAV:   3    -0.614192776493E+03   -0.70971E+03   -0.68542E+03 11976   0.197E+02
DAV:   4    -0.680414106806E+03   -0.66221E+02   -0.63682E+02 13548   0.673E+01
DAV:   5    -0.684036897867E+03   -0.36228E+01   -0.34451E+01 13812   0.160E+01    0.141E+02
RMM:   6    -0.626924208537E+03    0.57113E+02   -0.14496E+03 11489   0.114E+02    0.718E+01
RMM:   7    -0.658548977024E+03   -0.31625E+02   -0.75973E+02  9625   0.108E+02    0.554E+01
RMM:   8    -0.590438038665E+03    0.68111E+02   -0.12312E+02  9673   0.381E+01    0.294E+01
RMM:   9    -0.578382008592E+03    0.12056E+02   -0.62525E+01 10283   0.243E+01    0.254E+01
RMM:  10    -0.564650468622E+03    0.13732E+02   -0.20529E+01 10788   0.119E+01    0.166E+01
RMM:  11    -0.564978605572E+03   -0.32814E+00   -0.53123E+00 12331   0.446E+00    0.149E+01
RMM:  12    -0.564848298235E+03    0.13031E+00   -0.13085E+00 10692   0.318E+00    0.134E+01
RMM:  13    -0.563862674003E+03    0.98562E+00   -0.37253E+00 11113   0.576E+00    0.779E+00
RMM:  14    -0.564441431839E+03   -0.57876E+00   -0.36836E+00 10050   0.565E+00    0.849E+00
RMM:  15    -0.563564125355E+03    0.87731E+00   -0.12623E+00  9398   0.384E+00    0.301E+00
RMM:  16    -0.563625929706E+03   -0.61804E-01   -0.11128E+00 11719   0.223E+00    0.334E+00
RMM:  17    -0.563504443182E+03    0.12149E+00   -0.29286E-01 10288   0.162E+00    0.157E+00
RMM:  18    -0.563502807666E+03    0.16355E-02   -0.23288E-01 11312   0.103E+00    0.105E+00
RMM:  19    -0.563487658220E+03    0.15149E-01   -0.79666E-02 10981   0.696E-01    0.718E-01
RMM:  20    -0.563481236136E+03    0.64221E-02   -0.44406E-02 11590   0.512E-01    0.623E-01
RMM:  21    -0.563478016659E+03    0.32195E-02   -0.24315E-02 12450   0.308E-01    0.688E-01
RMM:  22    -0.563475944515E+03    0.20721E-02   -0.70616E-03 10253   0.242E-01    0.517E-01
RMM:  23    -0.563474338823E+03    0.16057E-02   -0.13420E-02 12148   0.267E-01    0.242E-01
RMM:  24    -0.563474216170E+03    0.12265E-03   -0.69562E-03 12023   0.204E-01    0.279E-01
RMM:  25    -0.563473008850E+03    0.12073E-02   -0.19279E-03 10609   0.131E-01    0.164E-01
RMM:  26    -0.563472515419E+03    0.49343E-03   -0.24963E-03 12326   0.863E-02    0.798E-02
RMM:  27    -0.563472958719E+03   -0.44330E-03   -0.12486E-03 10950   0.989E-02    0.935E-02
RMM:  28    -0.563473445475E+03   -0.48676E-03   -0.75325E-04 11374   0.711E-02    0.586E-02
RMM:  29    -0.563473892570E+03   -0.44710E-03   -0.36940E-04 11791   0.412E-02    0.453E-02
RMM:  30    -0.563474094511E+03   -0.20194E-03   -0.16215E-04 11428   0.272E-02    0.385E-02
RMM:  31    -0.563474227195E+03   -0.13268E-03   -0.13000E-04 11831   0.264E-02    0.289E-02
RMM:  32    -0.563474388613E+03   -0.16142E-03   -0.10351E-04 12490   0.204E-02    0.133E-02
RMM:  33    -0.563474463123E+03   -0.74510E-04   -0.38680E-05  9794   0.105E-02    0.124E-02
RMM:  34    -0.563474569950E+03   -0.10683E-03   -0.23051E-05  8456   0.125E-02    0.132E-02
RMM:  35    -0.563474626431E+03   -0.56481E-04   -0.14047E-05  8182   0.904E-03    0.751E-03
RMM:  36    -0.563474761556E+03   -0.13513E-03   -0.11639E-05  7721   0.674E-03    0.852E-03
RMM:  37    -0.563474844001E+03   -0.82444E-04   -0.57833E-06  7497   0.573E-03    0.872E-03
RMM:  38    -0.563474971565E+03   -0.12756E-03   -0.10257E-05  7966   0.599E-03    0.745E-03
RMM:  39    -0.563475062820E+03   -0.91255E-04   -0.84726E-06  7730   0.392E-03    0.543E-03
RMM:  40    -0.563475112325E+03   -0.49504E-04   -0.49480E-06  7192   0.430E-03    0.215E-03
RMM:  41    -0.563475135750E+03   -0.23426E-04   -0.23712E-06  6840   0.316E-03    0.233E-03
RMM:  42    -0.563475159849E+03   -0.24098E-04   -0.23066E-06  6651   0.272E-03    0.157E-03
RMM:  43    -0.563475168689E+03   -0.88404E-05   -0.95981E-07  6241   0.215E-03    0.644E-04
RMM:  44    -0.563475171165E+03   -0.24755E-05   -0.35234E-07  4759   0.139E-03    0.547E-04
RMM:  45    -0.563475173779E+03   -0.26143E-05   -0.26652E-07  4767   0.120E-03    0.255E-04
RMM:  46    -0.563475175906E+03   -0.21271E-05   -0.28916E-07  4345   0.104E-03    0.252E-04
RMM:  47    -0.563475176206E+03   -0.29965E-06   -0.12601E-07  3893   0.959E-04
   1 F= -.56347518E+03 E0= -.56347678E+03  d E =0.481777E-02
 augmentation electrons   35.709509925371698     
 soft         electrons   244.38610506217924     
 augmentation electrons   35.709509925371698     
 soft         electrons   244.38610506217924     
 augmentation electrons   35.709509925371698     
 soft         electrons   244.38610506217924     
 augmentation electrons   35.709509925371698     
 soft         electrons   244.38610506217924     
 augmentation electrons   35.709509925371698     
 soft         electrons   244.38610506217924     
 augmentation electrons   35.709509925371698     
 soft         electrons   244.38610506217924     
 augmentation electrons   35.709509925371698     
 soft         electrons   244.38610506217924     
 augmentation electrons   35.709509925371698     
 soft         electrons   244.38610506217924     
 augmentation electrons   35.709509925371698     
 soft         electrons   244.38610506217924     
 augmentation electrons   35.709509925371698     
 soft         electrons   244.38610506217924     
 augmentation electrons   35.709509925371698     
 soft         electrons   244.38610506217924     
 augmentation electrons   35.709509925371698     
 soft         electrons   244.38610506217924     
 augmentation electrons   35.709509925371698     
 soft         electrons   244.38610506217924     
 augmentation electrons   35.709509925371698     
 soft         electrons   244.38610506217924     
 augmentation electrons   35.709509925371698     
 soft         electrons   244.38610506217924     
 augmentation electrons   35.709509925371698     
 soft         electrons   244.38610506217924     
 augmentation electrons   35.709509925371698     
 soft         electrons   244.38610506217924     
 augmentation electrons   35.709509925371698     
 soft         electrons   244.38610506217924     
 augmentation electrons   35.709509925371698     
 augmentation electrons   35.709509925371698     
 soft         electrons   244.38610506217924     
 augmentation electrons   35.709509925371698     
 soft         electrons   244.38610506217924     
 augmentation electrons   35.709509925371698     
 soft         electrons   244.38610506217924     
 augmentation electrons   35.709509925371698     
 soft         electrons   244.38610506217924     
 augmentation electrons   35.709509925371698     
 soft         electrons   244.38610506217924     
 augmentation electrons   35.709509925371698     
 soft         electrons   244.38610506217924     
 augmentation electrons   35.709509925371698     
 soft         electrons   244.38610506217924     
 augmentation electrons   35.709509925371698     
 soft         electrons   244.38610506217924     
 augmentation electrons   35.709509925371698     
 soft         electrons   244.38610506217924     
 augmentation electrons   35.709509925371698     
 soft         electrons   244.38610506217924     
 augmentation electrons   35.709509925371698     
 soft         electrons   244.38610506217924     
 augmentation electrons   35.709509925371698     
 soft         electrons   244.38610506217924     
 augmentation electrons   35.709509925371698     
 soft         electrons   244.38610506217924     
 augmentation electrons   35.709509925371698     
 soft         electrons   244.38610506217924     
 augmentation electrons   35.709509925371698     
 soft         electrons   244.38610506217924     
 augmentation electrons   35.709509925371698     
 soft         electrons   244.38610506217924     
 augmentation electrons   35.709509925371698     
 soft         electrons   244.38610506217924     
 augmentation electrons   35.709509925371698     
 soft         electrons   244.38610506217924     
 augmentation electrons   35.709509925371698     
 soft         electrons   244.38610506217924     
 augmentation electrons   35.709509925371698     
 soft         electrons   244.38610506217924     
 augmentation electrons   35.709509925371698     
 soft         electrons   244.38610506217924     
 augmentation electrons   35.709509925371698     
 soft         electrons   244.38610506217924     
 augmentation electrons   35.709509925371698     
 soft         electrons   244.38610506217924     
 augmentation electrons   35.709509925371698     
 soft         electrons   244.38610506217924     
 augmentation electrons   35.709509925371698     
 soft         electrons   244.38610506217924     
 augmentation electrons   35.709509925371698     
 soft         electrons   244.38610506217924     
 augmentation electrons   35.709509925371698     
 soft         electrons   244.38610506217924     
 augmentation electrons   35.709509925371698     
 soft         electrons   244.38610506217924     
 augmentation electrons   35.709509925371698     
 soft         electrons   244.38610506217924     
 augmentation electrons   35.709509925371698     
 soft         electrons   244.38610506217924     
 augmentation electrons   35.709509925371698     
 soft         electrons   244.38610506217924     
 augmentation electrons   35.709509925371698     
 soft         electrons   244.38610506217924     
 augmentation electrons   35.709509925371698     
 soft         electrons   244.38610506217924     
 augmentation electrons   35.709509925371698     
 soft         electrons   244.38610506217924     
 augmentation electrons   35.709509925371698     
 soft         electrons   244.38610506217924     
 augmentation electrons   35.709509925371698     
 soft         electrons   244.38610506217924     
 augmentation electrons   35.709509925371698     
 soft         electrons   244.38610506217924     
 augmentation electrons   35.709509925371698     
 soft         electrons   244.38610506217924     
 augmentation electrons   35.709509925371698     
 soft         electrons   244.38610506217924     
 augmentation electrons   35.709509925371698     
 soft         electrons   244.38610506217924     
 augmentation electrons   35.709509925371698     
 soft         electrons   244.38610506217924     
 augmentation electrons   35.709509925371698     
 soft         electrons   244.38610506217924     
 augmentation electrons   35.709509925371698     
 soft         electrons   244.38610506217924     
 augmentation electrons   35.709509925371698     
 soft         electrons   244.38610506217924     
 augmentation electrons   35.709509925371698     
 soft         electrons   244.38610506217924     
 augmentation electrons   35.709509925371698     
 soft         electrons   244.38610506217924     
 augmentation electrons   35.709509925371698     
 soft         electrons   244.38610506217924     
 augmentation electrons   35.709509925371698     
 soft         electrons   244.38610506217924     
 augmentation electrons   35.709509925371698     
 soft         electrons   244.38610506217924     
 augmentation electrons   35.709509925371698     
 soft         electrons   244.38610506217924     
 augmentation electrons   35.709509925371698     
 soft         electrons   244.38610506217924     
 augmentation electrons   35.709509925371698     
 soft         electrons   244.38610506217924     
 augmentation electrons   35.709509925371698     
 soft         electrons   244.38610506217924     
 soft         electrons   244.38610506217924     
 total        electrons   280.09561498755096     
 total        electrons   280.09561498755096     
 total        electrons   280.09561498755096     
 total        electrons   280.09561498755096     
 total        electrons   280.09561498755096     
 total        electrons   280.09561498755096     
 total        electrons   280.09561498755096     
 total        electrons   280.09561498755096     
 total        electrons   280.09561498755096     
 total        electrons   280.09561498755096     
 total        electrons   280.09561498755096     
 total        electrons   280.09561498755096     
 total        electrons   280.09561498755096     
 total        electrons   280.09561498755096     
 total        electrons   280.09561498755096     
 total        electrons   280.09561498755096     
 total        electrons   280.09561498755096     
 total        electrons   280.09561498755096     
 total        electrons   280.09561498755096     
 total        electrons   280.09561498755096     
 total        electrons   280.09561498755096     
 total        electrons   280.09561498755096     
 total        electrons   280.09561498755096     
 total        electrons   280.09561498755096     
 total        electrons   280.09561498755096     
 total        electrons   280.09561498755096     
 total        electrons   280.09561498755096     
 total        electrons   280.09561498755096     
 total        electrons   280.09561498755096     
 total        electrons   280.09561498755096     
 total        electrons   280.09561498755096     
 total        electrons   280.09561498755096     
 total        electrons   280.09561498755096     
 total        electrons   280.09561498755096     
 total        electrons   280.09561498755096     
 total        electrons   280.09561498755096     
 total        electrons   280.09561498755096     
 total        electrons   280.09561498755096     
 total        electrons   280.09561498755096     
 total        electrons   280.09561498755096     
 total        electrons   280.09561498755096     
 total        electrons   280.09561498755096     
 total        electrons   280.09561498755096     
 total        electrons   280.09561498755096     
 total        electrons   280.09561498755096     
 total        electrons   280.09561498755096     
 total        electrons   280.09561498755096     
 total        electrons   280.09561498755096     
 total        electrons   280.09561498755096     
 total        electrons   280.09561498755096     
 total        electrons   280.09561498755096     
 total        electrons   280.09561498755096     
 total        electrons   280.09561498755096     
 total        electrons   280.09561498755096     
 total        electrons   280.09561498755096     
 total        electrons   280.09561498755096     
 total        electrons   280.09561498755096     
 total        electrons   280.09561498755096     
 total        electrons   280.09561498755096     
 total        electrons   280.09561498755096     
 total        electrons   280.09561498755096     
 total        electrons   280.09561498755096     
 total        electrons   280.09561498755096     
 total        electrons   280.09561498755096     
 total        electrons   280.09561498755096     
 total        electrons   280.09561498755096     
 total        electrons   280.09561498755096     
 total        electrons   280.09561498755096     
 total        electrons   280.09561498755096     
 total        electrons   280.09561498755096     
 total        electrons   280.09561498755096     
 total        electrons   280.09561498755096     
Note: The following floating-point exceptions are signalling: IEEE_OVERFLOW_FLAG
Note: The following floating-point exceptions are signalling: IEEE_OVERFLOW_FLAG
Note: The following floating-point exceptions are signalling: IEEE_OVERFLOW_FLAG
Note: The following floating-point exceptions are signalling: IEEE_OVERFLOW_FLAG
Note: The following floating-point exceptions are signalling: IEEE_OVERFLOW_FLAG
Note: The following floating-point exceptions are signalling: IEEE_OVERFLOW_FLAG
Note: The following floating-point exceptions are signalling: IEEE_OVERFLOW_FLAG
Note: The following floating-point exceptions are signalling: IEEE_OVERFLOW_FLAG
Note: The following floating-point exceptions are signalling: IEEE_OVERFLOW_FLAG
Note: The following floating-point exceptions are signalling: IEEE_OVERFLOW_FLAG
Note: The following floating-point exceptions are signalling: IEEE_OVERFLOW_FLAG
Note: The following floating-point exceptions are signalling: IEEE_OVERFLOW_FLAG
Note: The following floating-point exceptions are signalling: IEEE_OVERFLOW_FLAG
Note: The following floating-point exceptions are signalling: IEEE_OVERFLOW_FLAG
Note: The following floating-point exceptions are signalling: IEEE_OVERFLOW_FLAG
Note: The following floating-point exceptions are signalling: IEEE_OVERFLOW_FLAG
Note: The following floating-point exceptions are signalling: IEEE_OVERFLOW_FLAG
Note: The following floating-point exceptions are signalling: IEEE_OVERFLOW_FLAG
Note: The following floating-point exceptions are signalling: IEEE_OVERFLOW_FLAG
Note: The following floating-point exceptions are signalling: IEEE_OVERFLOW_FLAG
Note: The following floating-point exceptions are signalling: IEEE_OVERFLOW_FLAG
Note: The following floating-point exceptions are signalling: IEEE_OVERFLOW_FLAG
Note: The following floating-point exceptions are signalling: IEEE_OVERFLOW_FLAG
Note: The following floating-point exceptions are signalling: IEEE_OVERFLOW_FLAG
Note: The following floating-point exceptions are signalling: IEEE_OVERFLOW_FLAG
Note: The following floating-point exceptions are signalling: IEEE_OVERFLOW_FLAG
Note: The following floating-point exceptions are signalling: IEEE_OVERFLOW_FLAG
Note: The following floating-point exceptions are signalling: IEEE_OVERFLOW_FLAG
Note: The following floating-point exceptions are signalling: IEEE_OVERFLOW_FLAG
Note: The following floating-point exceptions are signalling: IEEE_OVERFLOW_FLAG
Note: The following floating-point exceptions are signalling: IEEE_OVERFLOW_FLAG
Note: The following floating-point exceptions are signalling: IEEE_OVERFLOW_FLAG
Note: The following floating-point exceptions are signalling: IEEE_OVERFLOW_FLAG
Note: The following floating-point exceptions are signalling: IEEE_OVERFLOW_FLAG
Note: The following floating-point exceptions are signalling: IEEE_OVERFLOW_FLAG
Note: The following floating-point exceptions are signalling: IEEE_OVERFLOW_FLAG
Note: The following floating-point exceptions are signalling: IEEE_OVERFLOW_FLAG
Note: The following floating-point exceptions are signalling: IEEE_OVERFLOW_FLAG
Note: The following floating-point exceptions are signalling: IEEE_OVERFLOW_FLAG
Note: The following floating-point exceptions are signalling: IEEE_OVERFLOW_FLAG
Note: The following floating-point exceptions are signalling: IEEE_OVERFLOW_FLAG
Note: The following floating-point exceptions are signalling: IEEE_OVERFLOW_FLAG
Note: The following floating-point exceptions are signalling: IEEE_OVERFLOW_FLAG
Note: The following floating-point exceptions are signalling: IEEE_OVERFLOW_FLAG
Note: The following floating-point exceptions are signalling: IEEE_OVERFLOW_FLAG
Note: The following floating-point exceptions are signalling: IEEE_OVERFLOW_FLAG
Note: The following floating-point exceptions are signalling: IEEE_OVERFLOW_FLAG
Note: The following floating-point exceptions are signalling: IEEE_OVERFLOW_FLAG
Note: The following floating-point exceptions are signalling: IEEE_OVERFLOW_FLAG
Note: The following floating-point exceptions are signalling: IEEE_OVERFLOW_FLAG
Note: The following floating-point exceptions are signalling: IEEE_OVERFLOW_FLAG
Note: The following floating-point exceptions are signalling: IEEE_OVERFLOW_FLAG
Note: The following floating-point exceptions are signalling: IEEE_OVERFLOW_FLAG
Note: The following floating-point exceptions are signalling: IEEE_OVERFLOW_FLAG
Note: The following floating-point exceptions are signalling: IEEE_OVERFLOW_FLAG
Note: The following floating-point exceptions are signalling: IEEE_OVERFLOW_FLAG
Note: The following floating-point exceptions are signalling: IEEE_OVERFLOW_FLAG
Note: The following floating-point exceptions are signalling: IEEE_OVERFLOW_FLAG
Note: The following floating-point exceptions are signalling: IEEE_OVERFLOW_FLAG
Note: The following floating-point exceptions are signalling: IEEE_OVERFLOW_FLAG
Note: The following floating-point exceptions are signalling: IEEE_OVERFLOW_FLAG
Note: The following floating-point exceptions are signalling: IEEE_OVERFLOW_FLAG
Note: The following floating-point exceptions are signalling: IEEE_OVERFLOW_FLAG
Note: The following floating-point exceptions are signalling: IEEE_OVERFLOW_FLAG
Note: The following floating-point exceptions are signalling: IEEE_OVERFLOW_FLAG
Note: The following floating-point exceptions are signalling: IEEE_OVERFLOW_FLAG
Note: The following floating-point exceptions are signalling: IEEE_OVERFLOW_FLAG
Note: The following floating-point exceptions are signalling: IEEE_OVERFLOW_FLAG
Note: The following floating-point exceptions are signalling: IEEE_OVERFLOW_FLAG
Note: The following floating-point exceptions are signalling: IEEE_OVERFLOW_FLAG
Note: The following floating-point exceptions are signalling: IEEE_OVERFLOW_FLAG
Note: The following floating-point exceptions are signalling: IEEE_OVERFLOW_FLAG
