   23   23   85    1
  0.2549686E+02  0.6078000E-09  0.6078000E-09  0.1833000E-08  0.5000000E-15
   1.0000000000000000E-004
  CAR 
 Name                                    
     89     25     60

  0.3742002E-15  0.3742002E-15  0.1262379E-14  0.1234568E-01
    1      -14.013580   1.000000
    2      -11.732877   1.000000
    3      -11.525776   1.000000
    4      -11.107795   1.000000
    5      -11.033155   1.000000
    6      -10.336023   1.000000
    7      -10.249022   1.000000
    8       -9.891941   1.000000
    9       -9.260703   1.000000
   10       -8.684627   1.000000
   11       -8.674669   1.000000
   12       -7.803679   1.000000
   13       -7.783488   1.000000
   14       -7.706284   1.000000
   15       -7.423038   1.000000
   16       -6.487273   1.000000
   17       -6.183419   1.000000
   18       -6.031742   1.000000
   19       -5.303984   1.000000
   20       -5.077926   1.000000
   21       -5.073557   1.000000
   22       -4.847618   1.000000
   23       -4.662751   1.000000
   24       -4.638881   1.000000
   25       -4.498032   1.000000
   26       -4.238366   1.000000
   27       -4.223715   1.000000
   28       -3.937169   1.000000
   29       -3.832129   1.000000
   30       -3.652794   1.000000
   31       -3.471437   1.000000
   32       -3.385254   1.000000
   33       -3.344147   1.000000
   34       -1.909758   1.000000
   35       -1.870169   1.000000
   36       -1.806936   1.000000
   37       -1.683023   1.000000
   38       -1.670350   1.000000
   39       -1.543446   1.000000
   40       -1.083858   1.023839
   41       -1.001081   1.034950
   42       -0.971004   1.026991
   43       -0.827016   0.740994
   44       -0.751204   0.432558
   45       -0.746168   0.411552
   46        0.174052  -0.000000
   47        0.191366  -0.000000
   48        0.384220  -0.000000
   49        0.414994  -0.000000
   50        0.443086  -0.000000
   51        0.534263  -0.000000
   52        0.592591  -0.000000
   53        0.604696  -0.000000
   54        0.673684  -0.000000
   55        1.020969  -0.000000
   56        1.082541  -0.000000
   57        1.107507  -0.000000
   58        1.211333  -0.000000
   59        1.265706  -0.000000
   60        1.498487  -0.000000

  0.1111111E+00  0.3756941E-15  0.1262379E-14  0.4938272E-01
    1      -13.964709   1.000000
    2      -11.696192   1.000000
    3      -11.635843   1.000000
    4      -11.223594   1.000000
    5      -11.155901   1.000000
    6      -10.198125   1.000000
    7      -10.159154   1.000000
    8       -9.740437   1.000000
    9       -9.264752   1.000000
   10       -8.834924   1.000000
   11       -8.711113   1.000000
   12       -7.733467   1.000000
   13       -7.661321   1.000000
   14       -7.560745   1.000000
   15       -7.279298   1.000000
   16       -6.515947   1.000000
   17       -6.268335   1.000000
   18       -6.050582   1.000000
   19       -5.252986   1.000000
   20       -5.148391   1.000000
   21       -5.051695   1.000000
   22       -4.844904   1.000000
   23       -4.732086   1.000000
   24       -4.638880   1.000000
   25       -4.418371   1.000000
   26       -4.275044   1.000000
   27       -4.218306   1.000000
   28       -4.104479   1.000000
   29       -4.022084   1.000000
   30       -3.582845   1.000000
   31       -3.452483   1.000000
   32       -3.313409   1.000000
   33       -3.225603   1.000000
   34       -2.049443   1.000000
   35       -1.933587   1.000000
   36       -1.913208   1.000000
   37       -1.759343   1.000000
   38       -1.588023   1.000000
   39       -1.475990   1.000003
   40       -1.295620   1.000600
   41       -1.037817   1.033339
   42       -0.957285   1.019189
   43       -0.902079   0.950617
   44       -0.882941   0.910233
   45       -0.790438   0.597603
   46       -0.035837  -0.000001
   47        0.126986  -0.000000
   48        0.379194  -0.000000
   49        0.425048  -0.000000
   50        0.435772  -0.000000
   51        0.465750  -0.000000
   52        0.596718  -0.000000
   53        0.691788  -0.000000
   54        0.812608  -0.000000
   55        0.906288  -0.000000
   56        1.022772  -0.000000
   57        1.093036  -0.000000
   58        1.133933  -0.000000
   59        1.352602  -0.000000
   60        1.479637  -0.000000

  0.2222222E+00  0.3431732E-15  0.1262379E-14  0.4938272E-01
    1      -13.820903   1.000000
    2      -11.988065   1.000000
    3      -11.588262   1.000000
    4      -11.377934   1.000000
    5      -11.283655   1.000000
    6      -10.164688   1.000000
    7       -9.929642   1.000000
    8       -9.571013   1.000000
    9       -9.152228   1.000000
   10       -8.829533   1.000000
   11       -8.795956   1.000000
   12       -7.579008   1.000000
   13       -7.425445   1.000000
   14       -7.323617   1.000000
   15       -6.867882   1.000000
   16       -6.624229   1.000000
   17       -6.483641   1.000000
   18       -6.022598   1.000000
   19       -5.396121   1.000000
   20       -5.132803   1.000000
   21       -5.044552   1.000000
   22       -4.899085   1.000000
   23       -4.864430   1.000000
   24       -4.683268   1.000000
   25       -4.498480   1.000000
   26       -4.386583   1.000000
   27       -4.224045   1.000000
   28       -4.200084   1.000000
   29       -4.155008   1.000000
   30       -3.488965   1.000000
   31       -3.434174   1.000000
   32       -3.122383   1.000000
   33       -3.004181   1.000000
   34       -2.393956   1.000000
   35       -2.127554   1.000000
   36       -2.001747   1.000000
   37       -1.752454   1.000000
   38       -1.686431   1.000000
   39       -1.615681   1.000000
   40       -1.348005   1.000158
   41       -1.317934   1.000346
   42       -1.246020   1.001834
   43       -1.174117   1.007138
   44       -0.994894   1.034172
   45       -0.733313   0.358874
   46       -0.278152  -0.001474
   47        0.017569  -0.000000
   48        0.245260  -0.000000
   49        0.309744  -0.000000
   50        0.339791  -0.000000
   51        0.394527  -0.000000
   52        0.497938  -0.000000
   53        0.539027  -0.000000
   54        0.754657  -0.000000
   55        0.881781  -0.000000
   56        1.003986  -0.000000
   57        1.024487  -0.000000
   58        1.207430  -0.000000
   59        1.557267  -0.000000
   60        1.637656  -0.000000

  0.3333333E+00  0.3568756E-15  0.1262379E-14  0.4938272E-01
    1      -13.591603   1.000000
    2      -12.423229   1.000000
    3      -11.528798   1.000000
    4      -11.392890   1.000000
    5      -11.330056   1.000000
    6      -10.417018   1.000000
    7       -9.621232   1.000000
    8       -9.500606   1.000000
    9       -9.095932   1.000000
   10       -8.916669   1.000000
   11       -8.268595   1.000000
   12       -7.423089   1.000000
   13       -7.186477   1.000000
   14       -7.000459   1.000000
   15       -6.824803   1.000000
   16       -6.742139   1.000000
   17       -6.462392   1.000000
   18       -5.901119   1.000000
   19       -5.786230   1.000000
   20       -5.314561   1.000000
   21       -5.172347   1.000000
   22       -5.089088   1.000000
   23       -4.783896   1.000000
   24       -4.750389   1.000000
   25       -4.632797   1.000000
   26       -4.502587   1.000000
   27       -4.229119   1.000000
   28       -4.160995   1.000000
   29       -3.972043   1.000000
   30       -3.514088   1.000000
   31       -3.247139   1.000000
   32       -2.955766   1.000000
   33       -2.888390   1.000000
   34       -2.567274   1.000000
   35       -2.299143   1.000000
   36       -2.151887   1.000000
   37       -1.981094   1.000000
   38       -1.828278   1.000000
   39       -1.742069   1.000000
   40       -1.627214   1.000000
   41       -1.536903   1.000000
   42       -1.446813   1.000008
   43       -1.338992   1.000201
   44       -0.993274   1.033903
   45       -0.888305   0.922480
   46       -0.265520  -0.001115
   47       -0.197302  -0.000211
   48       -0.041625  -0.000002
   49        0.148121  -0.000000
   50        0.167995  -0.000000
   51        0.221009  -0.000000
   52        0.315123  -0.000000
   53        0.445860  -0.000000
   54        0.602705  -0.000000
   55        0.740344  -0.000000
   56        1.028326  -0.000000
   57        1.057979  -0.000000
   58        1.332155  -0.000000
   59        1.779280  -0.000000
   60        1.851490  -0.000000

  0.4444444E+00  0.3276888E-15  0.1262379E-14  0.4938272E-01
    1      -13.308373   1.000000
    2      -12.819510   1.000000
    3      -11.555495   1.000000
    4      -11.446192   1.000000
    5      -11.100778   1.000000
    6      -10.742251   1.000000
    7       -9.475367   1.000000
    8       -9.332257   1.000000
    9       -9.081282   1.000000
   10       -9.001259   1.000000
   11       -7.567023   1.000000
   12       -7.354535   1.000000
   13       -7.157658   1.000000
   14       -6.883253   1.000000
   15       -6.835102   1.000000
   16       -6.817154   1.000000
   17       -6.543421   1.000000
   18       -6.090270   1.000000
   19       -5.699198   1.000000
   20       -5.468464   1.000000
   21       -5.381047   1.000000
   22       -5.162762   1.000000
   23       -4.852834   1.000000
   24       -4.778392   1.000000
   25       -4.553263   1.000000
   26       -4.527271   1.000000
   27       -4.270268   1.000000
   28       -4.116893   1.000000
   29       -3.802530   1.000000
   30       -3.483880   1.000000
   31       -3.166023   1.000000
   32       -3.061701   1.000000
   33       -2.746431   1.000000
   34       -2.475286   1.000000
   35       -2.363099   1.000000
   36       -2.227134   1.000000
   37       -2.188789   1.000000
   38       -2.062788   1.000000
   39       -1.888107   1.000000
   40       -1.826100   1.000000
   41       -1.616204   1.000000
   42       -1.508430   1.000001
   43       -1.474830   1.000003
   44       -1.039005   1.033159
   45       -0.770909   0.515697
   46       -0.391699  -0.011635
   47       -0.345434  -0.005537
   48       -0.184205  -0.000149
   49       -0.131474  -0.000033
   50        0.037363  -0.000000
   51        0.068481  -0.000000
   52        0.313859  -0.000000
   53        0.348574  -0.000000
   54        0.666207  -0.000000
   55        0.725967  -0.000000
   56        0.918557  -0.000000
   57        0.987491  -0.000000
   58        1.398723  -0.000000
   59        1.938295  -0.000000
   60        1.981057  -0.000000

  0.1111111E+00  0.1111111E+00  0.1262379E-14  0.2469136E-01
    1      -13.868720   1.000000
    2      -11.823723   1.000000
    3      -11.648531   1.000000
    4      -11.502404   1.000000
    5      -11.099686   1.000000
    6      -10.124995   1.000000
    7      -10.075728   1.000000
    8       -9.573061   1.000000
    9       -9.185736   1.000000
   10       -8.943650   1.000000
   11       -8.665400   1.000000
   12       -7.800122   1.000000
   13       -7.392359   1.000000
   14       -7.324345   1.000000
   15       -7.021164   1.000000
   16       -6.618753   1.000000
   17       -6.373286   1.000000
   18       -6.064634   1.000000
   19       -5.329444   1.000000
   20       -5.172619   1.000000
   21       -5.040542   1.000000
   22       -4.846739   1.000000
   23       -4.782692   1.000000
   24       -4.655111   1.000000
   25       -4.440231   1.000000
   26       -4.358306   1.000000
   27       -4.213219   1.000000
   28       -4.212539   1.000000
   29       -4.196286   1.000000
   30       -3.487570   1.000000
   31       -3.418879   1.000000
   32       -3.271538   1.000000
   33       -3.023700   1.000000
   34       -2.255775   1.000000
   35       -2.071580   1.000000
   36       -1.904909   1.000000
   37       -1.874883   1.000000
   38       -1.669318   1.000000
   39       -1.550509   1.000000
   40       -1.308339   1.000440
   41       -1.281323   1.000840
   42       -1.117811   1.016299
   43       -1.112204   1.017470
   44       -0.997922   1.034600
   45       -0.678738   0.163214
   46       -0.183987  -0.000148
   47        0.018272  -0.000000
   48        0.221961  -0.000000
   49        0.287232  -0.000000
   50        0.390519  -0.000000
   51        0.433801  -0.000000
   52        0.504364  -0.000000
   53        0.753493  -0.000000
   54        0.817470  -0.000000
   55        0.978443  -0.000000
   56        1.008974  -0.000000
   57        1.034131  -0.000000
   58        1.076216  -0.000000
   59        1.204909  -0.000000
   60        1.796800  -0.000000

  0.2222222E+00  0.1111111E+00  0.1262379E-14  0.4938272E-01
    1      -13.682064   1.000000
    2      -12.183878   1.000000
    3      -11.802187   1.000000
    4      -11.429241   1.000000
    5      -11.062255   1.000000
    6      -10.240258   1.000000
    7       -9.946828   1.000000
    8       -9.630494   1.000000
    9       -8.957352   1.000000
   10       -8.676801   1.000000
   11       -8.548392   1.000000
   12       -7.779195   1.000000
   13       -7.121878   1.000000
   14       -7.008054   1.000000
   15       -6.905890   1.000000
   16       -6.533974   1.000000
   17       -6.470775   1.000000
   18       -6.074095   1.000000
   19       -5.674410   1.000000
   20       -5.178074   1.000000
   21       -5.097563   1.000000
   22       -5.037067   1.000000
   23       -4.886125   1.000000
   24       -4.709137   1.000000
   25       -4.610257   1.000000
   26       -4.468063   1.000000
   27       -4.275676   1.000000
   28       -4.150773   1.000000
   29       -4.009407   1.000000
   30       -3.466735   1.000000
   31       -3.285584   1.000000
   32       -3.150775   1.000000
   33       -2.798127   1.000000
   34       -2.540714   1.000000
   35       -2.158313   1.000000
   36       -2.148110   1.000000
   37       -1.864091   1.000000
   38       -1.810119   1.000000
   39       -1.704094   1.000000
   40       -1.645894   1.000000
   41       -1.424749   1.000017
   42       -1.374767   1.000075
   43       -1.282924   1.000809
   44       -1.095520   1.021154
   45       -0.617967   0.025037
   46       -0.272719  -0.001309
   47       -0.141319  -0.000044
   48       -0.076618  -0.000006
   49        0.070206  -0.000000
   50        0.265073  -0.000000
   51        0.308025  -0.000000
   52        0.460695  -0.000000
   53        0.581590  -0.000000
   54        0.681726  -0.000000
   55        0.803258  -0.000000
   56        0.990654  -0.000000
   57        1.132630  -0.000000
   58        1.165803  -0.000000
   59        1.293885  -0.000000
   60        2.033102  -0.000000

  0.3333333E+00  0.1111111E+00  0.1262379E-14  0.4938272E-01
    1      -13.419743   1.000000
    2      -12.604633   1.000000
    3      -11.905263   1.000000
    4      -11.208479   1.000000
    5      -11.065518   1.000000
    6      -10.550625   1.000000
    7       -9.805933   1.000000
    8       -9.612651   1.000000
    9       -8.811685   1.000000
   10       -8.684315   1.000000
   11       -7.912621   1.000000
   12       -7.644837   1.000000
   13       -7.135377   1.000000
   14       -6.901745   1.000000
   15       -6.666954   1.000000
   16       -6.632341   1.000000
   17       -6.456908   1.000000
   18       -5.993746   1.000000
   19       -5.892138   1.000000
   20       -5.480162   1.000000
   21       -5.294574   1.000000
   22       -5.198341   1.000000
   23       -4.975303   1.000000
   24       -4.726930   1.000000
   25       -4.621368   1.000000
   26       -4.515474   1.000000
   27       -4.231006   1.000000
   28       -4.063676   1.000000
   29       -3.811770   1.000000
   30       -3.459969   1.000000
   31       -3.177581   1.000000
   32       -3.063588   1.000000
   33       -2.760152   1.000000
   34       -2.540304   1.000000
   35       -2.378476   1.000000
   36       -2.248144   1.000000
   37       -2.065503   1.000000
   38       -1.951008   1.000000
   39       -1.784399   1.000000
   40       -1.722689   1.000000
   41       -1.627008   1.000000
   42       -1.569527   1.000000
   43       -1.384744   1.000057
   44       -1.115973   1.016679
   45       -0.726385   0.331226
   46       -0.405646  -0.014135
   47       -0.390892  -0.011500
   48       -0.142751  -0.000046
   49       -0.046633  -0.000002
   50        0.110591  -0.000000
   51        0.150592  -0.000000
   52        0.282071  -0.000000
   53        0.479727  -0.000000
   54        0.577299  -0.000000
   55        0.745424  -0.000000
   56        0.913208  -0.000000
   57        1.117099  -0.000000
   58        1.247330  -0.000000
   59        1.449112  -0.000000
   60        2.073258  -0.000000

  0.4444444E+00  0.1111111E+00  0.1262379E-14  0.4938272E-01
    1      -13.189518   1.000000
    2      -12.893497   1.000000
    3      -11.937842   1.000000
    4      -11.073423   1.000000
    5      -10.986398   1.000000
    6      -10.811093   1.000000
    7       -9.800971   1.000000
    8       -9.508868   1.000000
    9       -8.882138   1.000000
   10       -8.588442   1.000000
   11       -7.567306   1.000000
   12       -7.343073   1.000000
   13       -7.184818   1.000000
   14       -7.105011   1.000000
   15       -6.903980   1.000000
   16       -6.486396   1.000000
   17       -6.309111   1.000000
   18       -6.191102   1.000000
   19       -5.693427   1.000000
   20       -5.678461   1.000000
   21       -5.459098   1.000000
   22       -5.108189   1.000000
   23       -5.011687   1.000000
   24       -4.944716   1.000000
   25       -4.603176   1.000000
   26       -4.497754   1.000000
   27       -4.117129   1.000000
   28       -4.050865   1.000000
   29       -3.696396   1.000000
   30       -3.444281   1.000000
   31       -3.267882   1.000000
   32       -3.059507   1.000000
   33       -2.693465   1.000000
   34       -2.539522   1.000000
   35       -2.405208   1.000000
   36       -2.222466   1.000000
   37       -2.121791   1.000000
   38       -2.033490   1.000000
   39       -1.895249   1.000000
   40       -1.838073   1.000000
   41       -1.646522   1.000000
   42       -1.545407   1.000000
   43       -1.502972   1.000001
   44       -1.037594   1.033373
   45       -0.695452   0.216985
   46       -0.620911   0.029628
   47       -0.465776  -0.027333
   48       -0.291740  -0.001968
   49       -0.007471  -0.000001
   50        0.029092  -0.000000
   51        0.121194  -0.000000
   52        0.212616  -0.000000
   53        0.396822  -0.000000
   54        0.652648  -0.000000
   55        0.780486  -0.000000
   56        0.788084  -0.000000
   57        1.068008  -0.000000
   58        1.293151  -0.000000
   59        1.524890  -0.000000
   60        2.135909  -0.000000

 -0.4444444E+00  0.1111111E+00  0.1262379E-14  0.4938272E-01
    1      -13.416321   1.000000
    2      -12.614055   1.000000
    3      -11.903650   1.000000
    4      -11.200211   1.000000
    5      -11.064377   1.000000
    6      -10.553404   1.000000
    7       -9.806567   1.000000
    8       -9.617849   1.000000
    9       -8.809611   1.000000
   10       -8.672719   1.000000
   11       -7.941944   1.000000
   12       -7.643944   1.000000
   13       -7.112975   1.000000
   14       -6.855549   1.000000
   15       -6.730102   1.000000
   16       -6.631936   1.000000
   17       -6.448053   1.000000
   18       -5.938396   1.000000
   19       -5.880465   1.000000
   20       -5.434990   1.000000
   21       -5.373868   1.000000
   22       -5.230030   1.000000
   23       -5.005465   1.000000
   24       -4.747873   1.000000
   25       -4.621075   1.000000
   26       -4.520748   1.000000
   27       -4.217156   1.000000
   28       -4.031030   1.000000
   29       -3.793654   1.000000
   30       -3.479263   1.000000
   31       -3.193094   1.000000
   32       -3.113243   1.000000
   33       -2.732929   1.000000
   34       -2.515583   1.000000
   35       -2.328057   1.000000
   36       -2.263153   1.000000
   37       -2.026043   1.000000
   38       -1.932319   1.000000
   39       -1.854912   1.000000
   40       -1.773645   1.000000
   41       -1.563103   1.000000
   42       -1.523744   1.000001
   43       -1.436053   1.000012
   44       -1.088201   1.022834
   45       -0.728583   0.339930
   46       -0.425721  -0.018227
   47       -0.366902  -0.007956
   48       -0.169894  -0.000101
   49       -0.081759  -0.000007
   50        0.132191  -0.000000
   51        0.163208  -0.000000
   52        0.272287  -0.000000
   53        0.481957  -0.000000
   54        0.607444  -0.000000
   55        0.739444  -0.000000
   56        0.901110  -0.000000
   57        1.111824  -0.000000
   58        1.276334  -0.000000
   59        1.467859  -0.000000
   60        2.078179  -0.000000

 -0.3333333E+00  0.1111111E+00  0.1262379E-14  0.4938272E-01
    1      -13.679783   1.000000
    2      -12.201102   1.000000
    3      -11.800015   1.000000
    4      -11.416021   1.000000
    5      -11.055076   1.000000
    6      -10.240311   1.000000
    7       -9.954617   1.000000
    8       -9.632764   1.000000
    9       -8.942549   1.000000
   10       -8.687535   1.000000
   11       -8.562640   1.000000
   12       -7.765388   1.000000
   13       -7.153315   1.000000
   14       -7.001483   1.000000
   15       -6.863511   1.000000
   16       -6.522066   1.000000
   17       -6.471202   1.000000
   18       -6.087258   1.000000
   19       -5.598771   1.000000
   20       -5.160154   1.000000
   21       -5.142749   1.000000
   22       -5.080587   1.000000
   23       -4.958286   1.000000
   24       -4.777171   1.000000
   25       -4.606522   1.000000
   26       -4.403609   1.000000
   27       -4.298081   1.000000
   28       -4.116738   1.000000
   29       -4.010369   1.000000
   30       -3.478508   1.000000
   31       -3.306691   1.000000
   32       -3.037752   1.000000
   33       -2.826831   1.000000
   34       -2.625627   1.000000
   35       -2.193640   1.000000
   36       -2.081218   1.000000
   37       -1.827463   1.000000
   38       -1.792556   1.000000
   39       -1.681764   1.000000
   40       -1.600339   1.000000
   41       -1.475435   1.000003
   42       -1.364929   1.000100
   43       -1.313998   1.000382
   44       -1.064767   1.028190
   45       -0.635621   0.055697
   46       -0.302036  -0.002433
   47       -0.124538  -0.000027
   48       -0.064208  -0.000004
   49        0.081826  -0.000000
   50        0.231465  -0.000000
   51        0.326451  -0.000000
   52        0.464902  -0.000000
   53        0.548480  -0.000000
   54        0.720101  -0.000000
   55        0.793262  -0.000000
   56        0.987817  -0.000000
   57        1.143151  -0.000000
   58        1.212389  -0.000000
   59        1.314762  -0.000000
   60        1.977721  -0.000000

 -0.2222222E+00  0.1111111E+00  0.1262379E-14  0.4938272E-01
    1      -13.867447   1.000000
    2      -11.845450   1.000000
    3      -11.661489   1.000000
    4      -11.477971   1.000000
    5      -11.077972   1.000000
    6      -10.143742   1.000000
    7      -10.064292   1.000000
    8       -9.583807   1.000000
    9       -9.190769   1.000000
   10       -8.930871   1.000000
   11       -8.674896   1.000000
   12       -7.788454   1.000000
   13       -7.406250   1.000000
   14       -7.337938   1.000000
   15       -7.000219   1.000000
   16       -6.594307   1.000000
   17       -6.286141   1.000000
   18       -6.158540   1.000000
   19       -5.273682   1.000000
   20       -5.145873   1.000000
   21       -5.045949   1.000000
   22       -4.980656   1.000000
   23       -4.809590   1.000000
   24       -4.675892   1.000000
   25       -4.465642   1.000000
   26       -4.343931   1.000000
   27       -4.218147   1.000000
   28       -4.210630   1.000000
   29       -4.129859   1.000000
   30       -3.508620   1.000000
   31       -3.368020   1.000000
   32       -3.189877   1.000000
   33       -3.110499   1.000000
   34       -2.300534   1.000000
   35       -2.104725   1.000000
   36       -1.868755   1.000000
   37       -1.825255   1.000000
   38       -1.639378   1.000000
   39       -1.542283   1.000000
   40       -1.360090   1.000114
   41       -1.211408   1.003672
   42       -1.179240   1.006550
   43       -1.121373   1.015576
   44       -0.957617   1.019414
   45       -0.679816   0.166491
   46       -0.199865  -0.000226
   47        0.027307  -0.000000
   48        0.224542  -0.000000
   49        0.281216  -0.000000
   50        0.408871  -0.000000
   51        0.424068  -0.000000
   52        0.506395  -0.000000
   53        0.730150  -0.000000
   54        0.822074  -0.000000
   55        0.998085  -0.000000
   56        1.022473  -0.000000
   57        1.092237  -0.000000
   58        1.107058  -0.000000
   59        1.170415  -0.000000
   60        1.751730  -0.000000

 -0.1111111E+00  0.1111111E+00  0.1262379E-14  0.2469136E-01
    1      -13.964301   1.000000
    2      -11.705696   1.000000
    3      -11.633195   1.000000
    4      -11.265794   1.000000
    5      -11.095622   1.000000
    6      -10.223003   1.000000
    7      -10.145539   1.000000
    8       -9.743416   1.000000
    9       -9.266085   1.000000
   10       -8.827822   1.000000
   11       -8.715257   1.000000
   12       -7.726000   1.000000
   13       -7.683371   1.000000
   14       -7.549577   1.000000
   15       -7.275292   1.000000
   16       -6.513825   1.000000
   17       -6.175936   1.000000
   18       -6.136387   1.000000
   19       -5.245981   1.000000
   20       -5.123356   1.000000
   21       -5.061936   1.000000
   22       -4.920472   1.000000
   23       -4.726573   1.000000
   24       -4.562643   1.000000
   25       -4.525890   1.000000
   26       -4.256252   1.000000
   27       -4.218475   1.000000
   28       -4.042475   1.000000
   29       -4.039291   1.000000
   30       -3.593617   1.000000
   31       -3.391214   1.000000
   32       -3.305280   1.000000
   33       -3.280908   1.000000
   34       -2.071922   1.000000
   35       -1.978131   1.000000
   36       -1.875927   1.000000
   37       -1.692422   1.000000
   38       -1.588479   1.000000
   39       -1.514592   1.000001
   40       -1.303615   1.000494
   41       -1.014713   1.035433
   42       -0.969896   1.026471
   43       -0.926085   0.988608
   44       -0.843270   0.797523
   45       -0.793673   0.610940
   46       -0.023737  -0.000001
   47        0.110583  -0.000000
   48        0.373311  -0.000000
   49        0.416056  -0.000000
   50        0.453551  -0.000000
   51        0.462875  -0.000000
   52        0.616240  -0.000000
   53        0.654450  -0.000000
   54        0.801350  -0.000000
   55        0.970066  -0.000000
   56        1.003707  -0.000000
   57        1.131439  -0.000000
   58        1.160613  -0.000000
   59        1.269724  -0.000000
   60        1.538679  -0.000000

  0.2222222E+00  0.2222222E+00  0.1262379E-14  0.2469136E-01
    1      -13.459901   1.000000
    2      -12.390388   1.000000
    3      -12.179385   1.000000
    4      -11.240726   1.000000
    5      -10.844077   1.000000
    6      -10.329213   1.000000
    7      -10.135748   1.000000
    8       -9.805262   1.000000
    9       -8.540995   1.000000
   10       -8.342689   1.000000
   11       -8.206925   1.000000
   12       -7.949557   1.000000
   13       -7.209589   1.000000
   14       -6.813458   1.000000
   15       -6.592550   1.000000
   16       -6.419572   1.000000
   17       -6.318719   1.000000
   18       -6.189472   1.000000
   19       -5.964036   1.000000
   20       -5.365787   1.000000
   21       -5.287153   1.000000
   22       -5.257321   1.000000
   23       -5.165341   1.000000
   24       -4.710555   1.000000
   25       -4.624845   1.000000
   26       -4.475090   1.000000
   27       -4.268062   1.000000
   28       -4.000127   1.000000
   29       -3.787124   1.000000
   30       -3.420309   1.000000
   31       -3.247506   1.000000
   32       -3.024857   1.000000
   33       -2.769899   1.000000
   34       -2.593156   1.000000
   35       -2.332236   1.000000
   36       -2.263617   1.000000
   37       -1.965361   1.000000
   38       -1.888907   1.000000
   39       -1.769952   1.000000
   40       -1.686040   1.000000
   41       -1.631908   1.000000
   42       -1.581116   1.000000
   43       -1.304639   1.000482
   44       -1.246742   1.001807
   45       -0.599508   0.000758
   46       -0.521984  -0.035458
   47       -0.245627  -0.000706
   48       -0.212407  -0.000312
   49       -0.098271  -0.000012
   50        0.020699  -0.000000
   51        0.235478  -0.000000
   52        0.429266  -0.000000
   53        0.579783  -0.000000
   54        0.663844  -0.000000
   55        0.728297  -0.000000
   56        0.753271  -0.000000
   57        1.017915  -0.000000
   58        1.272477  -0.000000
   59        1.305762  -0.000000
   60        1.938933  -0.000000

  0.3333333E+00  0.2222222E+00  0.1262379E-14  0.4938272E-01
    1      -13.182042   1.000000
    2      -12.723736   1.000000
    3      -12.313790   1.000000
    4      -10.998003   1.000000
    5      -10.770652   1.000000
    6      -10.556940   1.000000
    7      -10.166426   1.000000
    8       -9.874199   1.000000
    9       -8.413977   1.000000
   10       -8.157894   1.000000
   11       -7.872263   1.000000
   12       -7.672613   1.000000
   13       -7.366944   1.000000
   14       -6.957034   1.000000
   15       -6.586589   1.000000
   16       -6.349019   1.000000
   17       -6.087057   1.000000
   18       -6.071865   1.000000
   19       -5.993985   1.000000
   20       -5.750428   1.000000
   21       -5.523029   1.000000
   22       -5.382441   1.000000
   23       -5.225730   1.000000
   24       -4.943935   1.000000
   25       -4.576714   1.000000
   26       -4.504282   1.000000
   27       -4.016314   1.000000
   28       -3.912364   1.000000
   29       -3.623549   1.000000
   30       -3.400591   1.000000
   31       -3.260244   1.000000
   32       -3.110879   1.000000
   33       -2.757838   1.000000
   34       -2.607294   1.000000
   35       -2.514203   1.000000