   71   71   85    1
  0.2199523E+02  0.1053953E-08  0.6141200E-09  0.2412750E-08  0.5000000E-15
   1.0000000000000000E-004
  CAR 
 Name                                    
    266     23    176

  0.3742002E-15  0.3742002E-15  0.1262379E-14  0.2222222E-01
    1      -13.993101   1.000000
    2      -13.005319   1.000000
    3      -12.853661   1.000000
    4      -12.461422   1.000000
    5      -11.875785   1.000000
    6      -11.714114   1.000000
    7      -11.657229   1.000000
    8      -11.636940   1.000000
    9      -11.478711   1.000000
   10      -11.255807   1.000000
   11      -11.127168   1.000000
   12      -11.053697   1.000000
   13      -10.866540   1.000000
   14      -10.474914   1.000000
   15      -10.346646   1.000000
   16      -10.228125   1.000000
   17      -10.146293   1.000000
   18      -10.067446   1.000000
   19       -9.904995   1.000000
   20       -9.687520   1.000000
   21       -9.651267   1.000000
   22       -9.558219   1.000000
   23       -9.324573   1.000000
   24       -9.021600   1.000000
   25       -8.952625   1.000000
   26       -8.790724   1.000000
   27       -8.649081   1.000000
   28       -8.410857   1.000000
   29       -8.368023   1.000000
   30       -8.168629   1.000000
   31       -8.110994   1.000000
   32       -7.862970   1.000000
   33       -7.567690   1.000000
   34       -7.419326   1.000000
   35       -7.288510   1.000000
   36       -7.216013   1.000000
   37       -7.125897   1.000000
   38       -6.998956   1.000000
   39       -6.872768   1.000000
   40       -6.816292   1.000000
   41       -6.764466   1.000000
   42       -6.681592   1.000000
   43       -6.587020   1.000000
   44       -6.482241   1.000000
   45       -6.416561   1.000000
   46       -6.343928   1.000000
   47       -6.212238   1.000000
   48       -6.094966   1.000000
   49       -6.057209   1.000000
   50       -5.993957   1.000000
   51       -5.856500   1.000000
   52       -5.802176   1.000000
   53       -5.780102   1.000000
   54       -5.685356   1.000000
   55       -5.658801   1.000000
   56       -5.532656   1.000000
   57       -5.441474   1.000000
   58       -5.402090   1.000000
   59       -5.261551   1.000000
   60       -5.241693   1.000000
   61       -5.138476   1.000000
   62       -5.067942   1.000000
   63       -4.907446   1.000000
   64       -4.784330   1.000000
   65       -4.753245   1.000000
   66       -4.689450   1.000000
   67       -4.661901   1.000000
   68       -4.603420   1.000000
   69       -4.556394   1.000000
   70       -4.518477   1.000000
   71       -4.481600   1.000000
   72       -4.328774   1.000000
   73       -4.308628   1.000000
   74       -4.249050   1.000000
   75       -4.222690   1.000000
   76       -4.111608   1.000000
   77       -4.040321   1.000000
   78       -3.969441   1.000000
   79       -3.851910   1.000000
   80       -3.805475   1.000000
   81       -3.791793   1.000000
   82       -3.694546   1.000000
   83       -3.656747   1.000000
   84       -3.512021   1.000000
   85       -3.419273   1.000000
   86       -3.402631   1.000000
   87       -3.390995   1.000000
   88       -3.354664   1.000000
   89       -3.279725   1.000000
   90       -3.237217   1.000000
   91       -3.168702   1.000000
   92       -3.110662   1.000000
   93       -3.019514   1.000000
   94       -2.954208   1.000000
   95       -2.895060   1.000000
   96       -2.777085   1.000000
   97       -2.739795   1.000000
   98       -2.711251   1.000000
   99       -2.623592   1.000000
  100       -2.508444   1.000000
  101       -2.480888   1.000000
  102       -2.406935   1.000000
  103       -2.368750   1.000000
  104       -2.341583   1.000000
  105       -2.224114   1.000000
  106       -2.197453   1.000000
  107       -2.166183   1.000000
  108       -2.140541   1.000000
  109       -2.054048   1.000000
  110       -2.049349   1.000000
  111       -1.858631   1.000000
  112       -1.848867   1.000000
  113       -1.813918   1.000000
  114       -1.760654   1.000000
  115       -1.499649   1.000000
  116       -1.361421   1.000000
  117       -1.333751   1.000000
  118       -1.274699   1.000000
  119       -1.189232   1.000000
  120       -1.089919   1.000000
  121       -0.982604   1.000000
  122       -0.962458   1.000000
  123       -0.711429   1.000001
  124       -0.617874   1.000014
  125       -0.529298   1.000186
  126       -0.406143   1.003188
  127       -0.360153   1.007299
  128       -0.262859   1.025775
  129       -0.220917   1.033941
  130       -0.148431   1.021633
  131       -0.097160   0.964289
  132       -0.078036   0.927609
  133       -0.000072   0.687067
  134        0.083819   0.340780
  135        0.125171   0.190439
  136        0.179210   0.051430
  137        0.182041   0.046157
  138        0.230025  -0.015188
  139        0.300918  -0.035059
  140        0.360485  -0.024207
  141        0.466096  -0.005644
  142        0.587323  -0.000432
  143        0.624459  -0.000166
  144        0.643644  -0.000098
  145        0.767710  -0.000002
  146        0.858427  -0.000000
  147        0.910310  -0.000000
  148        0.982987  -0.000000
  149        1.031431  -0.000000
  150        1.043438  -0.000000
  151        1.106888  -0.000000
  152        1.114729  -0.000000
  153        1.160787  -0.000000
  154        1.194875  -0.000000
  155        1.228082  -0.000000
  156        1.269904  -0.000000
  157        1.301866  -0.000000
  158        1.325756  -0.000000
  159        1.373271  -0.000000
  160        1.379796  -0.000000
  161        1.414677  -0.000000
  162        1.444588  -0.000000
  163        1.501413  -0.000000
  164        1.529530  -0.000000
  165        1.586079  -0.000000
  166        1.613350  -0.000000
  167        1.650276  -0.000000
  168        1.671168  -0.000000
  169        1.751691  -0.000000
  170        1.776179  -0.000000
  171        1.835240  -0.000000
  172        1.910372  -0.000000
  173        1.953998  -0.000000
  174        1.982231  -0.000000
  175        2.009936  -0.000000
  176        2.061270  -0.000000

  0.2000000E+00  0.3742002E-15  0.1262379E-14  0.4444444E-01
    1      -13.952581   1.000000
    2      -13.246115   1.000000
    3      -12.734959   1.000000
    4      -12.225820   1.000000
    5      -12.024109   1.000000
    6      -11.866408   1.000000
    7      -11.694127   1.000000
    8      -11.449331   1.000000
    9      -11.305168   1.000000
   10      -11.266073   1.000000
   11      -11.093433   1.000000
   12      -10.969484   1.000000
   13      -10.858206   1.000000
   14      -10.659580   1.000000
   15      -10.529782   1.000000
   16      -10.374929   1.000000
   17      -10.228252   1.000000
   18      -10.094546   1.000000
   19       -9.793788   1.000000
   20       -9.740801   1.000000
   21       -9.501362   1.000000
   22       -9.465027   1.000000
   23       -9.336422   1.000000
   24       -9.096708   1.000000
   25       -8.979606   1.000000
   26       -8.829396   1.000000
   27       -8.414365   1.000000
   28       -8.315127   1.000000
   29       -8.169130   1.000000
   30       -8.111554   1.000000
   31       -8.094103   1.000000
   32       -8.044347   1.000000
   33       -7.529831   1.000000
   34       -7.493475   1.000000
   35       -7.417831   1.000000
   36       -7.212133   1.000000
   37       -7.196614   1.000000
   38       -7.157277   1.000000
   39       -6.934790   1.000000
   40       -6.807325   1.000000
   41       -6.757324   1.000000
   42       -6.682045   1.000000
   43       -6.585042   1.000000
   44       -6.548207   1.000000
   45       -6.445216   1.000000
   46       -6.296168   1.000000
   47       -6.150654   1.000000
   48       -6.065536   1.000000
   49       -6.026585   1.000000
   50       -5.962008   1.000000
   51       -5.896923   1.000000
   52       -5.811588   1.000000
   53       -5.744013   1.000000
   54       -5.642892   1.000000
   55       -5.566269   1.000000
   56       -5.489214   1.000000
   57       -5.424177   1.000000
   58       -5.384622   1.000000
   59       -5.289550   1.000000
   60       -5.221506   1.000000
   61       -5.151650   1.000000
   62       -5.085220   1.000000
   63       -4.889433   1.000000
   64       -4.839646   1.000000
   65       -4.754185   1.000000
   66       -4.731916   1.000000
   67       -4.636507   1.000000
   68       -4.585209   1.000000
   69       -4.519776   1.000000
   70       -4.491785   1.000000
   71       -4.449889   1.000000
   72       -4.381343   1.000000
   73       -4.304888   1.000000
   74       -4.262175   1.000000
   75       -4.186908   1.000000
   76       -4.090840   1.000000
   77       -4.047042   1.000000
   78       -3.930695   1.000000
   79       -3.892399   1.000000
   80       -3.876609   1.000000
   81       -3.806141   1.000000
   82       -3.705334   1.000000
   83       -3.585599   1.000000
   84       -3.512447   1.000000
   85       -3.491616   1.000000
   86       -3.459034   1.000000
   87       -3.375503   1.000000
   88       -3.357670   1.000000
   89       -3.314222   1.000000
   90       -3.204604   1.000000
   91       -3.181778   1.000000
   92       -3.084252   1.000000
   93       -3.062202   1.000000
   94       -3.031946   1.000000
   95       -2.918242   1.000000
   96       -2.773106   1.000000
   97       -2.748652   1.000000
   98       -2.631478   1.000000
   99       -2.597575   1.000000
  100       -2.559977   1.000000
  101       -2.507700   1.000000
  102       -2.360871   1.000000
  103       -2.339164   1.000000
  104       -2.299443   1.000000
  105       -2.215848   1.000000
  106       -2.188093   1.000000
  107       -2.118182   1.000000
  108       -2.092239   1.000000
  109       -2.055625   1.000000
  110       -2.001786   1.000000
  111       -1.894678   1.000000
  112       -1.819773   1.000000
  113       -1.772241   1.000000
  114       -1.695372   1.000000
  115       -1.513744   1.000000
  116       -1.394200   1.000000
  117       -1.352339   1.000000
  118       -1.281998   1.000000
  119       -1.219324   1.000000
  120       -1.134243   1.000000
  121       -1.029401   1.000000
  122       -0.974385   1.000000
  123       -0.765336   1.000000
  124       -0.690876   1.000001
  125       -0.506004   1.000340
  126       -0.430189   1.001962
  127       -0.383390   1.004884
  128       -0.324170   1.012658
  129       -0.286117   1.020426
  130       -0.199852   1.035458
  131       -0.155992   1.025843
  132       -0.078373   0.928334
  133       -0.022385   0.769431
  134        0.059201   0.441825
  135        0.147054   0.125438
  136        0.207447   0.007400
  137        0.212725   0.001185
  138        0.298805  -0.035199
  139        0.345315  -0.027674
  140        0.409417  -0.013674
  141        0.450977  -0.007300
  142        0.580279  -0.000513
  143        0.655494  -0.000070
  144        0.700896  -0.000018
  145        0.832709  -0.000000
  146        0.873097  -0.000000
  147        0.912914  -0.000000
  148        0.965869  -0.000000
  149        1.003908  -0.000000
  150        1.047205  -0.000000
  151        1.097281  -0.000000
  152        1.128508  -0.000000
  153        1.187449  -0.000000
  154        1.235759  -0.000000
  155        1.259265  -0.000000
  156        1.292187  -0.000000
  157        1.319125  -0.000000
  158        1.347619  -0.000000
  159        1.369546  -0.000000
  160        1.397066  -0.000000
  161        1.437644  -0.000000
  162        1.487867  -0.000000
  163        1.511591  -0.000000
  164        1.562250  -0.000000
  165        1.587477  -0.000000
  166        1.632425  -0.000000
  167        1.661403  -0.000000
  168        1.676228  -0.000000
  169        1.750527  -0.000000
  170        1.825229  -0.000000
  171        1.862446  -0.000000
  172        1.884009  -0.000000
  173        1.955723  -0.000000
  174        1.994355  -0.000000
  175        2.052371  -0.000000
  176        2.093680  -0.000000

  0.4000000E+00  0.3742002E-15  0.1262379E-14  0.4444444E-01
    1      -13.850727   1.000000
    2      -13.500570   1.000000
    3      -12.615940   1.000000
    4      -12.284272   1.000000
    5      -11.849396   1.000000
    6      -11.751428   1.000000
    7      -11.738767   1.000000
    8      -11.411543   1.000000
    9      -11.281754   1.000000
   10      -11.208198   1.000000
   11      -11.061507   1.000000
   12      -11.021481   1.000000
   13      -10.847521   1.000000
   14      -10.738193   1.000000
   15      -10.644002   1.000000
   16      -10.554187   1.000000
   17      -10.237137   1.000000
   18      -10.065565   1.000000
   19      -10.045610   1.000000
   20       -9.854492   1.000000
   21       -9.453224   1.000000
   22       -9.398427   1.000000
   23       -9.193676   1.000000
   24       -9.026762   1.000000
   25       -8.906436   1.000000
   26       -8.757267   1.000000
   27       -8.427675   1.000000
   28       -8.179195   1.000000
   29       -8.063033   1.000000
   30       -7.928316   1.000000
   31       -7.905987   1.000000
   32       -7.830650   1.000000
   33       -7.754407   1.000000
   34       -7.683389   1.000000
   35       -7.521010   1.000000
   36       -7.480554   1.000000
   37       -7.333335   1.000000
   38       -7.228628   1.000000
   39       -7.152535   1.000000
   40       -6.885980   1.000000
   41       -6.770920   1.000000
   42       -6.634399   1.000000
   43       -6.565549   1.000000
   44       -6.465038   1.000000
   45       -6.336009   1.000000
   46       -6.201761   1.000000
   47       -6.161763   1.000000
   48       -6.079624   1.000000
   49       -6.068282   1.000000
   50       -5.962155   1.000000
   51       -5.873524   1.000000
   52       -5.747016   1.000000
   53       -5.674420   1.000000
   54       -5.655528   1.000000
   55       -5.566547   1.000000
   56       -5.533289   1.000000
   57       -5.368494   1.000000
   58       -5.331255   1.000000
   59       -5.270781   1.000000
   60       -5.172015   1.000000
   61       -5.134645   1.000000
   62       -5.043043   1.000000
   63       -4.926233   1.000000
   64       -4.807580   1.000000
   65       -4.767187   1.000000
   66       -4.713798   1.000000
   67       -4.680099   1.000000
   68       -4.583985   1.000000
   69       -4.545228   1.000000
   70       -4.490345   1.000000
   71       -4.416176   1.000000
   72       -4.365943   1.000000
   73       -4.325942   1.000000
   74       -4.182754   1.000000
   75       -4.155920   1.000000
   76       -4.059340   1.000000
   77       -4.020189   1.000000
   78       -3.984385   1.000000
   79       -3.955644   1.000000
   80       -3.892888   1.000000
   81       -3.784626   1.000000
   82       -3.716756   1.000000
   83       -3.633148   1.000000
   84       -3.587690   1.000000
   85       -3.526023   1.000000
   86       -3.497376   1.000000
   87       -3.428294   1.000000
   88       -3.311006   1.000000
   89       -3.292786   1.000000
   90       -3.211777   1.000000
   91       -3.191890   1.000000
   92       -3.172606   1.000000
   93       -3.025101   1.000000
   94       -3.014844   1.000000
   95       -2.956001   1.000000
   96       -2.917156   1.000000
   97       -2.748183   1.000000
   98       -2.669148   1.000000
   99       -2.602033   1.000000
  100       -2.563480   1.000000
  101       -2.420205   1.000000
  102       -2.323400   1.000000
  103       -2.314573   1.000000
  104       -2.213341   1.000000
  105       -2.192166   1.000000
  106       -2.092221   1.000000
  107       -2.064582   1.000000
  108       -2.028405   1.000000
  109       -1.980907   1.000000
  110       -1.932901   1.000000
  111       -1.846757   1.000000
  112       -1.778206   1.000000
  113       -1.730859   1.000000
  114       -1.648922   1.000000
  115       -1.574028   1.000000
  116       -1.502008   1.000000
  117       -1.415990   1.000000
  118       -1.352589   1.000000
  119       -1.179290   1.000000
  120       -1.158766   1.000000
  121       -1.078931   1.000000
  122       -1.021290   1.000000
  123       -0.856748   1.000000
  124       -0.823490   1.000000
  125       -0.560080   1.000080
  126       -0.451386   1.001243
  127       -0.425562   1.002160
  128       -0.406218   1.003184
  129       -0.360589   1.007247
  130       -0.286585   1.020321
  131       -0.209832   1.035077
  132       -0.095797   0.961973
  133        0.045438   0.499909
  134        0.091660   0.310007
  135        0.135434   0.158534
  136        0.211918   0.002097
  137        0.262755  -0.031943
  138        0.300856  -0.035063
  139        0.375762  -0.020695
  140        0.437749  -0.009031
  141        0.555231  -0.000927
  142        0.595548  -0.000352
  143        0.727545  -0.000008
  144        0.760629  -0.000003
  145        0.798793  -0.000001
  146        0.829020  -0.000000
  147        0.949273  -0.000000
  148        1.004347  -0.000000
  149        1.070909  -0.000000
  150        1.089909  -0.000000
  151        1.128792  -0.000000
  152        1.144603  -0.000000
  153        1.190110  -0.000000
  154        1.232819  -0.000000
  155        1.280267  -0.000000
  156        1.304920  -0.000000
  157        1.334156  -0.000000
  158        1.362588  -0.000000
  159        1.412938  -0.000000
  160        1.441538  -0.000000
  161        1.500312  -0.000000
  162        1.531907  -0.000000
  163        1.551055  -0.000000
  164        1.595104  -0.000000
  165        1.600334  -0.000000
  166        1.656218  -0.000000
  167        1.682813  -0.000000
  168        1.768119  -0.000000
  169        1.805703  -0.000000
  170        1.849110  -0.000000
  171        1.869390  -0.000000
  172        1.898004  -0.000000
  173        1.939844  -0.000000
  174        1.973407  -0.000000
  175        2.036973  -0.000000
  176        2.102926  -0.000000

  0.3742002E-15  0.1111111E+00  0.1262379E-14  0.4444444E-01
    1      -13.947386   1.000000
    2      -12.966325   1.000000
    3      -12.818906   1.000000
    4      -12.430363   1.000000
    5      -11.972111   1.000000
    6      -11.703779   1.000000
    7      -11.669505   1.000000
    8      -11.615303   1.000000
    9      -11.523128   1.000000
   10      -11.277527   1.000000
   11      -11.136517   1.000000
   12      -11.026925   1.000000
   13      -10.895235   1.000000
   14      -10.475174   1.000000
   15      -10.323412   1.000000
   16      -10.245496   1.000000
   17      -10.136159   1.000000
   18      -10.065075   1.000000
   19       -9.877130   1.000000
   20       -9.713351   1.000000
   21       -9.640422   1.000000
   22       -9.564072   1.000000
   23       -9.317781   1.000000
   24       -9.056047   1.000000
   25       -8.968705   1.000000
   26       -8.770127   1.000000
   27       -8.633237   1.000000
   28       -8.432391   1.000000
   29       -8.366475   1.000000
   30       -8.192283   1.000000
   31       -7.964901   1.000000
   32       -7.872536   1.000000
   33       -7.650144   1.000000
   34       -7.462464   1.000000
   35       -7.304799   1.000000
   36       -7.286983   1.000000
   37       -7.186112   1.000000
   38       -6.970568   1.000000
   39       -6.813367   1.000000
   40       -6.800930   1.000000
   41       -6.743244   1.000000
   42       -6.662170   1.000000
   43       -6.557886   1.000000
   44       -6.471426   1.000000
   45       -6.396064   1.000000
   46       -6.343627   1.000000
   47       -6.218791   1.000000
   48       -6.114925   1.000000
   49       -6.021659   1.000000
   50       -5.980741   1.000000
   51       -5.874696   1.000000
   52       -5.806452   1.000000
   53       -5.776042   1.000000
   54       -5.704860   1.000000
   55       -5.623522   1.000000
   56       -5.459088   1.000000
   57       -5.413311   1.000000
   58       -5.325317   1.000000
   59       -5.288616   1.000000
   60       -5.229955   1.000000
   61       -5.097303   1.000000
   62       -5.043183   1.000000
   63       -4.890279   1.000000
   64       -4.792703   1.000000
   65       -4.750839   1.000000
   66       -4.718079   1.000000
   67       -4.678435   1.000000
   68       -4.616758   1.000000
   69       -4.574201   1.000000
   70       -4.529847   1.000000
   71       -4.424312   1.000000
   72       -4.363285   1.000000
   73       -4.293187   1.000000
   74       -4.227105   1.000000
   75       -4.205185   1.000000
   76       -4.123966   1.000000
   77       -4.033727   1.000000
   78       -3.974808   1.000000
   79       -3.888888   1.000000
   80       -3.858063   1.000000
   81       -3.808271   1.000000
   82       -3.747027   1.000000
   83       -3.668572   1.000000
   84       -3.560468   1.000000
   85       -3.539769   1.000000
   86       -3.449925   1.000000
   87       -3.355858   1.000000
   88       -3.321305   1.000000
   89       -3.282682   1.000000
   90       -3.206909   1.000000
   91       -3.189541   1.000000
   92       -3.125567   1.000000
   93       -3.085305   1.000000
   94       -2.979145   1.000000
   95       -2.906705   1.000000
   96       -2.787831   1.000000
   97       -2.756690   1.000000
   98       -2.696114   1.000000
   99       -2.615120   1.000000
  100       -2.566818   1.000000
  101       -2.476289   1.000000
  102       -2.428514   1.000000
  103       -2.411232   1.000000
  104       -2.321940   1.000000
  105       -2.277214   1.000000
  106       -2.217964   1.000000
  107       -2.191286   1.000000
  108       -2.109797   1.000000
  109       -2.023555   1.000000
  110       -1.982750   1.000000
  111       -1.898678   1.000000
  112       -1.831847   1.000000
  113       -1.741687   1.000000
  114       -1.697480   1.000000
  115       -1.498985   1.000000
  116       -1.418819   1.000000
  117       -1.342530   1.000000
  118       -1.252885   1.000000
  119       -1.231279   1.000000
  120       -1.074688   1.000000
  121       -0.978967   1.000000
  122       -0.889262   1.000000
  123       -0.713270   1.000001
  124       -0.642906   1.000006
  125       -0.523374   1.000218
  126       -0.415475   1.002652
  127       -0.358898   1.007452
  128       -0.339310   1.010152
  129       -0.264679   1.025356
  130       -0.243764   1.029981
  131       -0.167670   1.030653
  132       -0.043243   0.837384
  133        0.052223   0.471216
  134        0.080494   0.354076
  135        0.145989   0.128332
  136        0.188797   0.034364
  137        0.223594  -0.009787
  138        0.279373  -0.034957
  139        0.380550  -0.019620
  140        0.416312  -0.012427
  141        0.500781  -0.002959
  142        0.570927  -0.000643
  143        0.673323  -0.000042
  144        0.696504  -0.000021
  145        0.777702  -0.000001
  146        0.818827  -0.000000
  147        0.887848  -0.000000
  148        0.936413  -0.000000
  149        1.001629  -0.000000
  150        1.079909  -0.000000
  151        1.091706  -0.000000
  152        1.119696  -0.000000
  153        1.164343  -0.000000
  154        1.178276  -0.000000
  155        1.232749  -0.000000
  156        1.250176  -0.000000
  157        1.299525  -0.000000
  158        1.326311  -0.000000
  159        1.340790  -0.000000
  160        1.376180  -0.000000
  161        1.421020  -0.000000
  162        1.433132  -0.000000
  163        1.473830  -0.000000
  164        1.511705  -0.000000
  165        1.555447  -0.000000
  166        1.603399  -0.000000
  167        1.645876  -0.000000
  168        1.685103  -0.000000
  169        1.734176  -0.000000
  170        1.774108  -0.000000
  171        1.868297  -0.000000
  172        1.914953  -0.000000
  173        1.929625  -0.000000
  174        1.999107  -0.000000
  175        2.032671  -0.000000
  176        2.118360  -0.000000

  0.2000000E+00  0.1111111E+00  0.1262379E-14  0.4444444E-01
    1      -13.907241   1.000000
    2      -13.206529   1.000000
    3      -12.698175   1.000000
    4      -12.202341   1.000000
    5      -11.994811   1.000000
    6      -11.953839   1.000000
    7      -11.740109   1.000000
    8      -11.484911   1.000000
    9      -11.305041   1.000000
   10      -11.263196   1.000000
   11      -11.107401   1.000000
   12      -10.946060   1.000000
   13      -10.879692   1.000000
   14      -10.647142   1.000000
   15      -10.521439   1.000000
   16      -10.356331   1.000000
   17      -10.243296   1.000000
   18      -10.102778   1.000000
   19       -9.798871   1.000000
   20       -9.717372   1.000000
   21       -9.523961   1.000000
   22       -9.445958   1.000000
   23       -9.337685   1.000000
   24       -9.096038   1.000000
   25       -9.013342   1.000000
   26       -8.813169   1.000000
   27       -8.429137   1.000000
   28       -8.314618   1.000000
   29       -8.186458   1.000000
   30       -8.131189   1.000000
   31       -8.084481   1.000000
   32       -7.913703   1.000000
   33       -7.608088   1.000000
   34       -7.559053   1.000000
   35       -7.425124   1.000000
   36       -7.256310   1.000000
   37       -7.190544   1.000000
   38       -7.060998   1.000000
   39       -6.922923   1.000000
   40       -6.836991   1.000000
   41       -6.765057   1.000000
   42       -6.687512   1.000000
   43       -6.599247   1.000000
   44       -6.492983   1.000000
   45       -6.445676   1.000000
   46       -6.400126   1.000000
   47       -6.183445   1.000000
   48       -6.039435   1.000000
   49       -5.943720   1.000000
   50       -5.898504   1.000000
   51       -5.865590   1.000000
   52       -5.809901   1.000000
   53       -5.739700   1.000000
   54       -5.612507   1.000000
   55       -5.554398   1.000000
   56       -5.477272   1.000000
   57       -5.434790   1.000000
   58       -5.347750   1.000000
   59       -5.250107   1.000000
   60       -5.214520   1.000000
   61       -5.119264   1.000000
   62       -5.061275   1.000000
   63       -4.890206   1.000000
   64       -4.831891   1.000000
   65       -4.768561   1.000000
   66       -4.708760   1.000000
   67       -4.638040   1.000000
   68       -4.610151   1.000000
   69       -4.564507   1.000000
   70       -4.466470   1.000000
   71       -4.408041   1.000000
   72       -4.369791   1.000000
   73       -4.340199   1.000000
   74       -4.255652   1.000000
   75       -4.145135   1.000000
   76       -4.103685   1.000000
   77       -4.057969   1.000000
   78       -3.958550   1.000000
   79       -3.944695   1.000000
   80       -3.865190   1.000000
   81       -3.800106   1.000000
   82       -3.726080   1.000000
   83       -3.661354   1.000000
   84       -3.597441   1.000000
   85       -3.542415   1.000000
   86       -3.477253   1.000000
   87       -3.412255   1.000000
   88       -3.325143   1.000000
   89       -3.278355   1.000000
   90       -3.236825   1.000000
   91       -3.191295   1.000000
   92       -3.143855   1.000000
   93       -3.092912   1.000000
   94       -3.031918   1.000000
   95       -2.863881   1.000000
   96       -2.823646   1.000000
   97       -2.739709   1.000000
   98       -2.643587   1.000000
   99       -2.627873   1.000000
  100       -2.532168   1.000000
  101       -2.516386   1.000000
  102       -2.400858   1.000000
  103       -2.357776   1.000000
  104       -2.325709   1.000000
  105       -2.279945   1.000000
  106       -2.234885   1.000000
  107       -2.128964   1.000000
  108       -2.068509   1.000000
  109       -2.011661   1.000000
  110       -1.971247   1.000000
  111       -1.888525   1.000000
  112       -1.818958   1.000000
  113       -1.749045   1.000000
  114       -1.674447   1.000000
  115       -1.496724   1.000000
  116       -1.457639   1.000000
  117       -1.353665   1.000000
  118       -1.278721   1.000000
  119       -1.248060   1.000000
  120       -1.139002   1.000000
  121       -0.960676   1.000000
  122       -0.919430   1.000000
  123       -0.763385   1.000000
  124       -0.686746   1.000001
  125       -0.541376   1.000134
  126       -0.445259   1.001423
  127       -0.384659   1.004774
  128       -0.326507   1.012247
  129       -0.304016   1.016542
  130       -0.260705   1.026269
  131       -0.148944   1.021948
  132       -0.068657   0.906273
  133        0.030229   0.564058
  134        0.065364   0.416058
  135        0.135525   0.158260
  136        0.196154   0.022767
  137        0.263703  -0.032199
  138        0.315936  -0.033354
  139        0.361364  -0.024004
  140        0.477631  -0.004592
  141        0.509920  -0.002466
  142        0.569590  -0.000664
  143        0.676008  -0.000039
  144        0.723470  -0.000009
  145        0.812751  -0.000000
  146        0.861600  -0.000000
  147        0.915540  -0.000000
  148        0.978693  -0.000000
  149        0.994773  -0.000000
  150        1.065526  -0.000000
  151        1.086365  -0.000000
  152        1.140752  -0.000000
  153        1.177168  -0.000000
  154        1.206033  -0.000000
  155        1.234863  -0.000000
  156        1.265707  -0.000000
  157        1.301760  -0.000000
  158        1.328992  -0.000000
  159        1.345635  -0.000000
  160        1.387596  -0.000000
  161        1.441846  -0.000000
  162        1.474132  -0.000000
  163        1.501496  -0.000000
  164        1.538681  -0.000000
  165        1.582568  -0.000000
  166        1.604802  -0.000000
  167        1.641146  -0.000000
  168        1.704297  -0.000000
  169        1.742933  -0.000000
  170        1.818504  -0.000000
  171        1.851266  -0.000000
  172        1.891467  -0.000000
  173        1.922158  -0.000000
  174        1.979226  -0.000000
  175        2.059379  -0.000000
  176        2.132830  -0.000000

  0.4000000E+00  0.1111111E+00  0.1262379E-14  0.4444444E-01
    1      -13.806178   1.000000
    2      -13.459091   1.000000
    3      -12.579562   1.000000
    4      -12.252450   1.000000
    5      -11.940587   1.000000
    6      -11.806787   1.000000
    7      -11.715624   1.000000
    8      -11.439709   1.000000
    9      -11.303453   1.000000
   10      -11.183513   1.000000
   11      -11.055695   1.000000