 running on   72 total cores
 distrk:  each k-point on   72 cores,    1 groups
 distr:  one band on    9 cores,    8 groups
 using from now: INCAR     
 vasp.5.4.4.18Apr17-6-g9f103f2a35 (build Dec  7 2020 12:43:57) complex           
 POSCAR found type information on POSCAR  Mo V  B  H 
 POSCAR found :  4 types and      71 ions
 scaLAPACK will be used
 LDA part: xc-table for Pade appr. of Perdew
 POSCAR, INCAR and KPOINTS ok, starting setup
 resort distribution
 resort distribution
 resort distribution
 resort distribution
 resort distribution
 resort distribution
 resort distribution
 resort distribution
 resort distribution
 resort distribution
 resort distribution
 resort distribution
 resort distribution
 resort distribution
 resort distribution
 resort distribution
 resort distribution
 resort distribution
 resort distribution
 resort distribution
 resort distribution
 resort distribution
 resort distribution
 resort distribution
 resort distribution
 resort distribution
 resort distribution
 resort distribution
 resort distribution
 resort distribution
 resort distribution
 resort distribution
 resort distribution
 resort distribution
 resort distribution
 resort distribution
 resort distribution
 resort distribution
 resort distribution
 resort distribution
 resort distribution
 resort distribution
 resort distribution
 resort distribution
 resort distribution
 resort distribution
 resort distribution
 resort distribution
 resort distribution
 resort distribution
 resort distribution
 resort distribution
 resort distribution
 resort distribution
 resort distribution
 resort distribution
 resort distribution
 resort distribution
 resort distribution
 resort distribution
 resort distribution
 resort distribution
 resort distribution
 resort distribution
 resort distribution
 resort distribution
 resort distribution
 resort distribution
 resort distribution
 resort distribution
 resort distribution
 resort distribution
 FFT: planning ...
 WAVECAR not read
 augmentation electrons   266.05814582611538     
 soft         electrons   0.0000000000000000     
 augmentation electrons   266.05814582611538     
 soft         electrons   0.0000000000000000     
 augmentation electrons   266.05814582611538     
 soft         electrons   0.0000000000000000     
 augmentation electrons   266.05814582611538     
 soft         electrons   0.0000000000000000     
 augmentation electrons   266.05814582611538     
 soft         electrons   0.0000000000000000     
 augmentation electrons   266.05814582611538     
 soft         electrons   0.0000000000000000     
 augmentation electrons   266.05814582611538     
 soft         electrons   0.0000000000000000     
 augmentation electrons   266.05814582611538     
 soft         electrons   0.0000000000000000     
 augmentation electrons   266.05814582611538     
 soft         electrons   0.0000000000000000     
 augmentation electrons   266.05814582611538     
 soft         electrons   0.0000000000000000     
 augmentation electrons   266.05814582611538     
 soft         electrons   0.0000000000000000     
 augmentation electrons   266.05814582611538     
 soft         electrons   0.0000000000000000     
 augmentation electrons   266.05814582611538     
 soft         electrons   0.0000000000000000     
 augmentation electrons   266.05814582611538     
 soft         electrons   0.0000000000000000     
 augmentation electrons   266.05814582611538     
 soft         electrons   0.0000000000000000     
 augmentation electrons   266.05814582611538     
 soft         electrons   0.0000000000000000     
 augmentation electrons   266.05814582611538     
 soft         electrons   0.0000000000000000     
 augmentation electrons   266.05814582611538     
 soft         electrons   0.0000000000000000     
 augmentation electrons   266.05814582611538     
 soft         electrons   0.0000000000000000     
 augmentation electrons   266.05814582611538     
 soft         electrons   0.0000000000000000     
 augmentation electrons   266.05814582611538     
 soft         electrons   0.0000000000000000     
 augmentation electrons   266.05814582611538     
 soft         electrons   0.0000000000000000     
 augmentation electrons   266.05814582611538     
 soft         electrons   0.0000000000000000     
 augmentation electrons   266.05814582611538     
 soft         electrons   0.0000000000000000     
 augmentation electrons   266.05814582611538     
 soft         electrons   0.0000000000000000     
 augmentation electrons   266.05814582611538     
 soft         electrons   0.0000000000000000     
 augmentation electrons   266.05814582611538     
 soft         electrons   0.0000000000000000     
 augmentation electrons   266.05814582611538     
 soft         electrons   0.0000000000000000     
 augmentation electrons   266.05814582611538     
 soft         electrons   0.0000000000000000     
 augmentation electrons   266.05814582611538     
 soft         electrons   0.0000000000000000     
 augmentation electrons   266.05814582611538     
 soft         electrons   0.0000000000000000     
 augmentation electrons   266.05814582611538     
 soft         electrons   0.0000000000000000     
 augmentation electrons   266.05814582611538     
 soft         electrons   0.0000000000000000     
 augmentation electrons   266.05814582611538     
 soft         electrons   0.0000000000000000     
 augmentation electrons   266.05814582611538     
 soft         electrons   0.0000000000000000     
 augmentation electrons   266.05814582611538     
 soft         electrons   0.0000000000000000     
 augmentation electrons   266.05814582611538     
 soft         electrons   0.0000000000000000     
 augmentation electrons   266.05814582611538     
 soft         electrons   0.0000000000000000     
 augmentation electrons   266.05814582611538     
 soft         electrons   0.0000000000000000     
 augmentation electrons   266.05814582611538     
 soft         electrons   0.0000000000000000     
 augmentation electrons   266.05814582611538     
 soft         electrons   0.0000000000000000     
 augmentation electrons   266.05814582611538     
 soft         electrons   0.0000000000000000     
 augmentation electrons   266.05814582611538     
 soft         electrons   0.0000000000000000     
 augmentation electrons   266.05814582611538     
 soft         electrons   0.0000000000000000     
 augmentation electrons   266.05814582611538     
 soft         electrons   0.0000000000000000     
 augmentation electrons   266.05814582611538     
 soft         electrons   0.0000000000000000     
 augmentation electrons   266.05814582611538     
 soft         electrons   0.0000000000000000     
 augmentation electrons   266.05814582611538     
 soft         electrons   0.0000000000000000     
 augmentation electrons   266.05814582611538     
 soft         electrons   0.0000000000000000     
 augmentation electrons   266.05814582611538     
 soft         electrons   0.0000000000000000     
 augmentation electrons   266.05814582611538     
 soft         electrons   0.0000000000000000     
 augmentation electrons   266.05814582611538     
 soft         electrons   0.0000000000000000     
 augmentation electrons   266.05814582611538     
 soft         electrons   0.0000000000000000     
 augmentation electrons   266.05814582611538     
 soft         electrons   0.0000000000000000     
 augmentation electrons   266.05814582611538     
 soft         electrons   0.0000000000000000     
 augmentation electrons   266.05814582611538     
 soft         electrons   0.0000000000000000     
 augmentation electrons   266.05814582611538     
 soft         electrons   0.0000000000000000     
 augmentation electrons   266.05814582611538     
 soft         electrons   0.0000000000000000     
 augmentation electrons   266.05814582611538     
 soft         electrons   0.0000000000000000     
 augmentation electrons   266.05814582611538     
 soft         electrons   0.0000000000000000     
 augmentation electrons   266.05814582611538     
 soft         electrons   0.0000000000000000     
 augmentation electrons   266.05814582611538     
 soft         electrons   0.0000000000000000     
 augmentation electrons   266.05814582611538     
 soft         electrons   0.0000000000000000     
 augmentation electrons   266.05814582611538     
 soft         electrons   0.0000000000000000     
 augmentation electrons   266.05814582611538     
 soft         electrons   0.0000000000000000     
 augmentation electrons   266.05814582611538     
 soft         electrons   0.0000000000000000     
 augmentation electrons   266.05814582611538     
 soft         electrons   0.0000000000000000     
 augmentation electrons   266.05814582611538     
 soft         electrons   0.0000000000000000     
 augmentation electrons   266.05814582611538     
 soft         electrons   0.0000000000000000     
 augmentation electrons   266.05814582611538     
 soft         electrons   0.0000000000000000     
 augmentation electrons   266.05814582611538     
 augmentation electrons   266.05814582611538     
 soft         electrons   0.0000000000000000     
 soft         electrons   0.0000000000000000     
 total        electrons   266.05814582611538     
 total        electrons   266.05814582611538     
 total        electrons   266.05814582611538     
 total        electrons   266.05814582611538     
 total        electrons   266.05814582611538     
 total        electrons   266.05814582611538     
 total        electrons   266.05814582611538     
 total        electrons   266.05814582611538     
 total        electrons   266.05814582611538     
 total        electrons   266.05814582611538     
 total        electrons   266.05814582611538     
 total        electrons   266.05814582611538     
 total        electrons   266.05814582611538     
 total        electrons   266.05814582611538     
 total        electrons   266.05814582611538     
 total        electrons   266.05814582611538     
 total        electrons   266.05814582611538     
 total        electrons   266.05814582611538     
 total        electrons   266.05814582611538     
 total        electrons   266.05814582611538     
 total        electrons   266.05814582611538     
 total        electrons   266.05814582611538     
 total        electrons   266.05814582611538     
 total        electrons   266.05814582611538     
 total        electrons   266.05814582611538     
 total        electrons   266.05814582611538     
 total        electrons   266.05814582611538     
 total        electrons   266.05814582611538     
 total        electrons   266.05814582611538     
 total        electrons   266.05814582611538     
 total        electrons   266.05814582611538     
 total        electrons   266.05814582611538     
 total        electrons   266.05814582611538     
 total        electrons   266.05814582611538     
 total        electrons   266.05814582611538     
 total        electrons   266.05814582611538     
 total        electrons   266.05814582611538     
 total        electrons   266.05814582611538     
 total        electrons   266.05814582611538     
 total        electrons   266.05814582611538     
 total        electrons   266.05814582611538     
 total        electrons   266.05814582611538     
 total        electrons   266.05814582611538     
 total        electrons   266.05814582611538     
 total        electrons   266.05814582611538     
 total        electrons   266.05814582611538     
 total        electrons   266.05814582611538     
 total        electrons   266.05814582611538     
 total        electrons   266.05814582611538     
 total        electrons   266.05814582611538     
 total        electrons   266.05814582611538     
 total        electrons   266.05814582611538     
 total        electrons   266.05814582611538     
 total        electrons   266.05814582611538     
 total        electrons   266.05814582611538     
 total        electrons   266.05814582611538     
 total        electrons   266.05814582611538     
 total        electrons   266.05814582611538     
 total        electrons   266.05814582611538     
 total        electrons   266.05814582611538     
 total        electrons   266.05814582611538     
 total        electrons   266.05814582611538     
 total        electrons   266.05814582611538     
 total        electrons   266.05814582611538     
 total        electrons   266.05814582611538     
 total        electrons   266.05814582611538     
 total        electrons   266.05814582611538     
 total        electrons   266.05814582611538     
 total        electrons   266.05814582611538     
 total        electrons   266.05814582611538     
 total        electrons   266.05814582611538     
 total        electrons   266.05814582611538     
 augmentation electrons   1134.5113766423656     
 soft         electrons   0.0000000000000000     
 augmentation electrons   1134.5113766423656     
 soft         electrons   0.0000000000000000     
 augmentation electrons   1134.5113766423656     
 soft         electrons   0.0000000000000000     
 augmentation electrons   1134.5113766423656     
 augmentation electrons   1134.5113766423656     
 soft         electrons   0.0000000000000000     
 augmentation electrons   1134.5113766423656     
 soft         electrons   0.0000000000000000     
 augmentation electrons   1134.5113766423656     
 soft         electrons   0.0000000000000000     
 augmentation electrons   1134.5113766423656     
 soft         electrons   0.0000000000000000     
 augmentation electrons   1134.5113766423656     
 soft         electrons   0.0000000000000000     
 augmentation electrons   1134.5113766423656     
 soft         electrons   0.0000000000000000     
 augmentation electrons   1134.5113766423656     
 soft         electrons   0.0000000000000000     
 augmentation electrons   1134.5113766423656     
 soft         electrons   0.0000000000000000     
 augmentation electrons   1134.5113766423656     
 soft         electrons   0.0000000000000000     
 augmentation electrons   1134.5113766423656     
 soft         electrons   0.0000000000000000     
 augmentation electrons   1134.5113766423656     
 soft         electrons   0.0000000000000000     
 augmentation electrons   1134.5113766423656     
 soft         electrons   0.0000000000000000     
 augmentation electrons   1134.5113766423656     
 soft         electrons   0.0000000000000000     
 augmentation electrons   1134.5113766423656     
 soft         electrons   0.0000000000000000     
 augmentation electrons   1134.5113766423656     
 soft         electrons   0.0000000000000000     
 augmentation electrons   1134.5113766423656     
 soft         electrons   0.0000000000000000     
 augmentation electrons   1134.5113766423656     
 soft         electrons   0.0000000000000000     
 augmentation electrons   1134.5113766423656     
 soft         electrons   0.0000000000000000     
 augmentation electrons   1134.5113766423656     
 soft         electrons   0.0000000000000000     
 augmentation electrons   1134.5113766423656     
 soft         electrons   0.0000000000000000     
 augmentation electrons   1134.5113766423656     
 soft         electrons   0.0000000000000000     
 augmentation electrons   1134.5113766423656     
 soft         electrons   0.0000000000000000     
 augmentation electrons   1134.5113766423656     
 soft         electrons   0.0000000000000000     
 augmentation electrons   1134.5113766423656     
 soft         electrons   0.0000000000000000     
 augmentation electrons   1134.5113766423656     
 soft         electrons   0.0000000000000000     
 augmentation electrons   1134.5113766423656     
 soft         electrons   0.0000000000000000     
 augmentation electrons   1134.5113766423656     
 soft         electrons   0.0000000000000000     
 augmentation electrons   1134.5113766423656     
 soft         electrons   0.0000000000000000     
 augmentation electrons   1134.5113766423656     
 soft         electrons   0.0000000000000000     
 augmentation electrons   1134.5113766423656     
 soft         electrons   0.0000000000000000     
 augmentation electrons   1134.5113766423656     
 soft         electrons   0.0000000000000000     
 augmentation electrons   1134.5113766423656     
 soft         electrons   0.0000000000000000     
 augmentation electrons   1134.5113766423656     
 soft         electrons   0.0000000000000000     
 augmentation electrons   1134.5113766423656     
 soft         electrons   0.0000000000000000     
 augmentation electrons   1134.5113766423656     
 soft         electrons   0.0000000000000000     
 augmentation electrons   1134.5113766423656     
 soft         electrons   0.0000000000000000     
 augmentation electrons   1134.5113766423656     
 soft         electrons   0.0000000000000000     
 augmentation electrons   1134.5113766423656     
 soft         electrons   0.0000000000000000     
 augmentation electrons   1134.5113766423656     
 soft         electrons   0.0000000000000000     
 augmentation electrons   1134.5113766423656     
 soft         electrons   0.0000000000000000     
 augmentation electrons   1134.5113766423656     
 soft         electrons   0.0000000000000000     
 augmentation electrons   1134.5113766423656     
 soft         electrons   0.0000000000000000     
 augmentation electrons   1134.5113766423656     
 soft         electrons   0.0000000000000000     
 augmentation electrons   1134.5113766423656     
 soft         electrons   0.0000000000000000     
 augmentation electrons   1134.5113766423656     
 soft         electrons   0.0000000000000000     
 augmentation electrons   1134.5113766423656     
 soft         electrons   0.0000000000000000     
 augmentation electrons   1134.5113766423656     
 soft         electrons   0.0000000000000000     
 augmentation electrons   1134.5113766423656     
 soft         electrons   0.0000000000000000     
 augmentation electrons   1134.5113766423656     
 soft         electrons   0.0000000000000000     
 augmentation electrons   1134.5113766423656     
 soft         electrons   0.0000000000000000     
 augmentation electrons   1134.5113766423656     
 soft         electrons   0.0000000000000000     
 augmentation electrons   1134.5113766423656     
 soft         electrons   0.0000000000000000     
 augmentation electrons   1134.5113766423656     
 soft         electrons   0.0000000000000000     
 augmentation electrons   1134.5113766423656     
 soft         electrons   0.0000000000000000     
 augmentation electrons   1134.5113766423656     
 soft         electrons   0.0000000000000000     
 augmentation electrons   1134.5113766423656     
 soft         electrons   0.0000000000000000     
 augmentation electrons   1134.5113766423656     
 soft         electrons   0.0000000000000000     
 augmentation electrons   1134.5113766423656     
 soft         electrons   0.0000000000000000     
 augmentation electrons   1134.5113766423656     
 soft         electrons   0.0000000000000000     
 augmentation electrons   1134.5113766423656     
 soft         electrons   0.0000000000000000     
 augmentation electrons   1134.5113766423656     
 soft         electrons   0.0000000000000000     
 augmentation electrons   1134.5113766423656     
 soft         electrons   0.0000000000000000     
 augmentation electrons   1134.5113766423656     
 soft         electrons   0.0000000000000000     
 augmentation electrons   1134.5113766423656     
 soft         electrons   0.0000000000000000     
 augmentation electrons   1134.5113766423656     
 soft         electrons   0.0000000000000000     
 augmentation electrons   1134.5113766423656     
 soft         electrons   0.0000000000000000     
 augmentation electrons   1134.5113766423656     
 soft         electrons   0.0000000000000000     
 augmentation electrons   1134.5113766423656     
 soft         electrons   0.0000000000000000     
 soft         electrons   0.0000000000000000     
 total        electrons   1134.5113766423656     
 total        electrons   1134.5113766423656     
 total        electrons   1134.5113766423656     
 total        electrons   1134.5113766423656     
 total        electrons   1134.5113766423656     
 total        electrons   1134.5113766423656     
 total        electrons   1134.5113766423656     
 total        electrons   1134.5113766423656     
 total        electrons   1134.5113766423656     
 total        electrons   1134.5113766423656     
 total        electrons   1134.5113766423656     
 total        electrons   1134.5113766423656     
 total        electrons   1134.5113766423656     
 total        electrons   1134.5113766423656     
 total        electrons   1134.5113766423656     
 total        electrons   1134.5113766423656     
 total        electrons   1134.5113766423656     
 total        electrons   1134.5113766423656     
 total        electrons   1134.5113766423656     
 total        electrons   1134.5113766423656     
 total        electrons   1134.5113766423656     
 total        electrons   1134.5113766423656     
 total        electrons   1134.5113766423656     
 total        electrons   1134.5113766423656     
 total        electrons   1134.5113766423656     
 total        electrons   1134.5113766423656     
 total        electrons   1134.5113766423656     
 total        electrons   1134.5113766423656     
 total        electrons   1134.5113766423656     
 total        electrons   1134.5113766423656     
 total        electrons   1134.5113766423656     
 total        electrons   1134.5113766423656     
 total        electrons   1134.5113766423656     
 total        electrons   1134.5113766423656     
 total        electrons   1134.5113766423656     
 total        electrons   1134.5113766423656     
 total        electrons   1134.5113766423656     
 total        electrons   1134.5113766423656     
 total        electrons   1134.5113766423656     
 total        electrons   1134.5113766423656     
 total        electrons   1134.5113766423656     
 total        electrons   1134.5113766423656     
 total        electrons   1134.5113766423656     
 total        electrons   1134.5113766423656     
 total        electrons   1134.5113766423656     
 total        electrons   1134.5113766423656     
 total        electrons   1134.5113766423656     
 total        electrons   1134.5113766423656     
 total        electrons   1134.5113766423656     
 total        electrons   1134.5113766423656     
 total        electrons   1134.5113766423656     
 total        electrons   1134.5113766423656     
 total        electrons   1134.5113766423656     
 total        electrons   1134.5113766423656     
 total        electrons   1134.5113766423656     
 total        electrons   1134.5113766423656     
 total        electrons   1134.5113766423656     
 total        electrons   1134.5113766423656     
 total        electrons   1134.5113766423656     
 total        electrons   1134.5113766423656     
 total        electrons   1134.5113766423656     
 total        electrons   1134.5113766423656     
 total        electrons   1134.5113766423656     
 total        electrons   1134.5113766423656     
 total        electrons   1134.5113766423656     
 total        electrons   1134.5113766423656     
 total        electrons   1134.5113766423656     
 total        electrons   1134.5113766423656     
 total        electrons   1134.5113766423656     
 total        electrons   1134.5113766423656     
 total        electrons   1134.5113766423656     
 total        electrons   1134.5113766423656     
 entering main loop
       N       E                     dE             d eps       ncg     rms          rms(c)
DAV:   1     0.227516928042E+04    0.22752E+04   -0.95243E+04  8096   0.123E+03
DAV:   2    -0.210887035295E+03   -0.24861E+04   -0.23056E+04  9280   0.300E+02
DAV:   3    -0.622035727607E+03   -0.41115E+03   -0.39138E+03 11464   0.142E+02
DAV:   4    -0.655756456861E+03   -0.33721E+02   -0.32331E+02 13048   0.454E+01
DAV:   5    -0.657668365528E+03   -0.19119E+01   -0.18537E+01 13752   0.106E+01    0.136E+02
RMM:   6    -0.607039334965E+03    0.50629E+02   -0.11409E+03 11413   0.899E+01    0.730E+01
RMM:   7    -0.659223447091E+03   -0.52184E+02   -0.35620E+02 10672   0.499E+01    0.506E+01
RMM:   8    -0.568648890365E+03    0.90575E+02   -0.84663E+01 10202   0.248E+01    0.307E+01
RMM:   9    -0.568386429964E+03    0.26246E+00   -0.41982E+01 10023   0.160E+01    0.265E+01
RMM:  10    -0.556056241759E+03    0.12330E+02   -0.13341E+01 11080   0.760E+00    0.211E+01
RMM:  11    -0.553397337222E+03    0.26589E+01   -0.65038E+00  8317   0.843E+00    0.173E+01
RMM:  12    -0.553197734726E+03    0.19960E+00   -0.41126E+00 10923   0.299E+00    0.161E+01
RMM:  13    -0.552776633278E+03    0.42110E+00   -0.76088E-01  8607   0.243E+00    0.143E+01
RMM:  14    -0.552203054253E+03    0.57358E+00   -0.97907E-01  8700   0.310E+00    0.111E+01
RMM:  15    -0.551770836308E+03    0.43222E+00   -0.25439E+00  8143   0.550E+00    0.678E+00
RMM:  16    -0.551363004751E+03    0.40783E+00   -0.15354E+00  8264   0.385E+00    0.291E+00
RMM:  17    -0.551401832493E+03   -0.38828E-01   -0.85328E-01 10992   0.141E+00    0.222E+00
RMM:  18    -0.551371776211E+03    0.30056E-01   -0.15745E-01  8736   0.115E+00    0.166E+00
RMM:  19    -0.551367676333E+03    0.40999E-02   -0.12770E-01  9889   0.905E-01    0.131E+00
RMM:  20    -0.551346282978E+03    0.21393E-01   -0.54453E-02 10256   0.536E-01    0.637E-01
RMM:  21    -0.551345514479E+03    0.76850E-03   -0.20492E-02  9346   0.369E-01    0.488E-01
RMM:  22    -0.551345194840E+03    0.31964E-03   -0.11204E-02  9463   0.281E-01    0.333E-01
RMM:  23    -0.551344807362E+03    0.38748E-03   -0.59240E-03 10825   0.136E-01    0.150E-01
RMM:  24    -0.551345672408E+03   -0.86505E-03   -0.21332E-03 10921   0.671E-02    0.936E-02
RMM:  25    -0.551346810713E+03   -0.11383E-02   -0.82647E-04 10546   0.488E-02    0.643E-02
RMM:  26    -0.551347806637E+03   -0.99592E-03   -0.42511E-04  9947   0.460E-02    0.661E-02
RMM:  27    -0.551348369843E+03   -0.56321E-03   -0.24190E-04  8760   0.414E-02    0.411E-02
RMM:  28    -0.551349400853E+03   -0.10310E-02   -0.29657E-04  9375   0.267E-02    0.344E-02
RMM:  29    -0.551349914243E+03   -0.51339E-03   -0.18429E-04 10218   0.242E-02    0.351E-02
RMM:  30    -0.551350020603E+03   -0.10636E-03   -0.63460E-05  9215   0.119E-02    0.191E-02
RMM:  31    -0.551350156235E+03   -0.13563E-03   -0.29783E-05  9352   0.996E-03    0.815E-03
RMM:  32    -0.551350234386E+03   -0.78151E-04   -0.13129E-05  6815   0.576E-03    0.535E-03
RMM:  33    -0.551350329672E+03   -0.95286E-04   -0.81464E-06  6155   0.513E-03    0.779E-03
RMM:  34    -0.551350476660E+03   -0.14699E-03   -0.69110E-06  6101   0.454E-03    0.464E-03
RMM:  35    -0.551350557923E+03   -0.81263E-04   -0.39843E-06  5938   0.372E-03    0.421E-03
RMM:  36    -0.551350643228E+03   -0.85305E-04   -0.70278E-06  6297   0.459E-03    0.385E-03
RMM:  37    -0.551350672876E+03   -0.29648E-04   -0.26126E-06  5680   0.421E-03    0.274E-03
RMM:  38    -0.551350685184E+03   -0.12308E-04   -0.11991E-06  5165   0.316E-03    0.229E-03
RMM:  39    -0.551350697121E+03   -0.11937E-04   -0.15600E-06  5353   0.348E-03    0.294E-03
RMM:  40    -0.551350700218E+03   -0.30972E-05   -0.55396E-07  4825   0.214E-03    0.485E-04
RMM:  41    -0.551350702066E+03   -0.18475E-05   -0.28560E-07  3433   0.103E-03    0.593E-04
RMM:  42    -0.551350703791E+03   -0.17255E-05   -0.20830E-07  3422   0.118E-03    0.144E-04
RMM:  43    -0.551350705144E+03   -0.13527E-05   -0.17864E-07  2704   0.771E-04    0.274E-04
RMM:  44    -0.551350705585E+03   -0.44045E-06   -0.11472E-07  2693   0.833E-04
   1 F= -.55135071E+03 E0= -.55134334E+03  d E =-.551351E+03
 curvature:   0.00 expect dE= 0.000E+00 dE for cont linesearch  0.000E+00
 trial: gam= 0.00000 g(F)=  0.325E-03 g(S)=  0.000E+00 ort = 0.000E+00 (trialstep = 0.100E+01)
 search vector abs. value=  0.325E-03
 bond charge predicted
       N       E                     dE             d eps       ncg     rms          rms(c)
DAV:   1    -0.551350962407E+03   -0.25726E-03   -0.54471E-03  9080   0.156E-01    0.272E-02
RMM:   2    -0.551350966979E+03   -0.45715E-05   -0.10407E-04 10355   0.258E-02    0.240E-02
RMM:   3    -0.551350986856E+03   -0.19877E-04   -0.31635E-05  9386   0.158E-02    0.440E-02
RMM:   4    -0.551350969832E+03    0.17023E-04   -0.31881E-05  8849   0.160E-02    0.257E-02
RMM:   5    -0.551350962181E+03    0.76515E-05   -0.14295E-05  7744   0.124E-02    0.135E-02
RMM:   6    -0.551350960516E+03    0.16650E-05   -0.48322E-06  6117   0.690E-03    0.837E-03
RMM:   7    -0.551350960292E+03    0.22362E-06   -0.20463E-06  5363   0.546E-03
   2 F= -.55135096E+03 E0= -.55134361E+03  d E =-.254708E-03
 trial-energy change:   -0.000255  1 .order   -0.000254   -0.000325   -0.000184
 step:   2.3126(harm=  2.3126)  dis= 0.00719  next Energy=  -551.351081 (dE=-0.375E-03)
 bond charge predicted
       N       E                     dE             d eps       ncg     rms          rms(c)
DAV:   1    -0.551351086023E+03   -0.12551E-03   -0.93716E-03  8752   0.205E-01    0.363E-02
RMM:   2    -0.551351099201E+03   -0.13178E-04   -0.18455E-04 10217   0.366E-02    0.366E-02
RMM:   3    -0.551351118700E+03   -0.19499E-04   -0.58277E-05  9212   0.238E-02    0.523E-02
RMM:   4    -0.551351109812E+03    0.88876E-05   -0.62705E-05  9139   0.235E-02    0.459E-02
RMM:   5    -0.551351092147E+03    0.17665E-04   -0.32474E-05  8197   0.202E-02    0.289E-02
RMM:   6    -0.551351084411E+03    0.77367E-05   -0.11718E-05  7123   0.106E-02    0.116E-02
RMM:   7    -0.551351083719E+03    0.69182E-06   -0.41262E-06  5930   0.641E-03
   3 F= -.55135108E+03 E0= -.55134377E+03  d E =-.378134E-03
 curvature:  -1.16 expect dE=-0.102E-03 dE for cont linesearch -0.157E-07
 trial: gam= 0.26452 g(F)=  0.879E-04 g(S)=  0.000E+00 ort = 0.210E-05 (trialstep = 0.126E+01)
 search vector abs. value=  0.112E-03
 bond charge predicted
       N       E                     dE             d eps       ncg     rms          rms(c)
DAV:   1    -0.551351178576E+03   -0.94165E-04   -0.28969E-03  8880   0.116E-01    0.219E-02
RMM:   2    -0.551351194140E+03   -0.15565E-04   -0.68645E-05 10302   0.223E-02    0.301E-02
RMM:   3    -0.551351183397E+03    0.10743E-04   -0.16766E-05  8432   0.119E-02    0.231E-02
RMM:   4    -0.551351187925E+03   -0.45284E-05   -0.22796E-05  7721   0.138E-02    0.312E-02
RMM:   5    -0.551351181188E+03    0.67375E-05   -0.13575E-05  7537   0.121E-02    0.162E-02
RMM:   6    -0.551351178397E+03    0.27910E-05   -0.50223E-06  6065   0.829E-03    0.101E-02
RMM:   7    -0.551351177702E+03    0.69501E-06   -0.15775E-06  5282   0.484E-03
   4 F= -.55135118E+03 E0= -.55134388E+03  d E =-.939830E-04
 trial-energy change:   -0.000094  1 .order   -0.000095   -0.000112   -0.000078
 step:   4.1686(harm=  4.1686)  dis= 0.00408  next Energy=  -551.351268 (dE=-0.184E-03)
 bond charge predicted
       N       E                     dE             d eps       ncg     rms          rms(c)
DAV:   1    -0.551351270894E+03   -0.92497E-04   -0.15345E-02  8464   0.264E-01    0.474E-02
RMM:   2    -0.551351309509E+03   -0.38615E-04   -0.27273E-04 10366   0.443E-02    0.550E-02
RMM:   3    -0.551351304505E+03    0.50034E-05   -0.73572E-05 10025   0.232E-02    0.565E-02
RMM:   4    -0.551351302985E+03    0.15210E-05   -0.10407E-04  9539   0.282E-02    0.518E-02
RMM:   5    -0.551351284830E+03    0.18155E-04   -0.61320E-05  8707   0.255E-02    0.386E-02
RMM:   6    -0.551351270981E+03    0.13848E-04   -0.22322E-05  7913   0.156E-02    0.205E-02
RMM:   7    -0.551351267144E+03    0.38376E-05   -0.68679E-06  6367   0.837E-03    0.814E-03
RMM:   8    -0.551351267082E+03    0.61769E-07   -0.34505E-06  5712   0.629E-03
   5 F= -.55135127E+03 E0= -.55134400E+03  d E =-.183363E-03
 curvature:  -2.63 expect dE=-0.948E-05 dE for cont linesearch -0.695E-08
 trial: gam= 0.06944 g(F)=  0.360E-05 g(S)=  0.000E+00 ort =-0.543E-06 (trialstep = 0.184E+01)
 search vector abs. value=  0.407E-05
 reached required accuracy - stopping structural energy minimisation
 augmentation electrons   27.742826560483536     
 soft         electrons   238.37751800490565     
 augmentation electrons   27.742826560483536     
 soft         electrons   238.37751800490565     
 augmentation electrons   27.742826560483536     
 soft         electrons   238.37751800490565     
 augmentation electrons   27.742826560483536     
 soft         electrons   238.37751800490565     
 augmentation electrons   27.742826560483536     
 soft         electrons   238.37751800490565     
 augmentation electrons   27.742826560483536     
 soft         electrons   238.37751800490565     
 augmentation electrons   27.742826560483536     
 soft         electrons   238.37751800490565     
 augmentation electrons   27.742826560483536     
 soft         electrons   238.37751800490565     
 augmentation electrons   27.742826560483536     
 soft         electrons   238.37751800490565     
 augmentation electrons   27.742826560483536     
 soft         electrons   238.37751800490565     
 augmentation electrons   27.742826560483536     
 soft         electrons   238.37751800490565     
 augmentation electrons   27.742826560483536     
 soft         electrons   238.37751800490565     
 augmentation electrons   27.742826560483536     
 soft         electrons   238.37751800490565     
 augmentation electrons   27.742826560483536     
 soft         electrons   238.37751800490565     
 augmentation electrons   27.742826560483536     
 soft         electrons   238.37751800490565     
 augmentation electrons   27.742826560483536     
 soft         electrons   238.37751800490565     
 augmentation electrons   27.742826560483536     
 soft         electrons   238.37751800490565     
 augmentation electrons   27.742826560483536     
 soft         electrons   238.37751800490565     
 augmentation electrons   27.742826560483536     
 soft         electrons   238.37751800490565     
 augmentation electrons   27.742826560483536     
 soft         electrons   238.37751800490565     
 augmentation electrons   27.742826560483536     
 soft         electrons   238.37751800490565     
 augmentation electrons   27.742826560483536     
 soft         electrons   238.37751800490565     
 augmentation electrons   27.742826560483536     
 soft         electrons   238.37751800490565     
 augmentation electrons   27.742826560483536     
 soft         electrons   238.37751800490565     
 augmentation electrons   27.742826560483536     
 soft         electrons   238.37751800490565     
 augmentation electrons   27.742826560483536     
 soft         electrons   238.37751800490565     
 augmentation electrons   27.742826560483536     
 soft         electrons   238.37751800490565     
 augmentation electrons   27.742826560483536     
 soft         electrons   238.37751800490565     
 augmentation electrons   27.742826560483536     
 soft         electrons   238.37751800490565     
 augmentation electrons   27.742826560483536     
 soft         electrons   238.37751800490565     
 augmentation electrons   27.742826560483536     
 soft         electrons   238.37751800490565     
 augmentation electrons   27.742826560483536     
 soft         electrons   238.37751800490565     
 augmentation electrons   27.742826560483536     
 soft         electrons   238.37751800490565     
 augmentation electrons   27.742826560483536     
 soft         electrons   238.37751800490565     
 augmentation electrons   27.742826560483536     
 soft         electrons   238.37751800490565     
 augmentation electrons   27.742826560483536     
 soft         electrons   238.37751800490565     
 augmentation electrons   27.742826560483536     
 soft         electrons   238.37751800490565     
 augmentation electrons   27.742826560483536     
 soft         electrons   238.37751800490565     
 augmentation electrons   27.742826560483536     
 soft         electrons   238.37751800490565     
 augmentation electrons   27.742826560483536     
 soft         electrons   238.37751800490565     
 augmentation electrons   27.742826560483536     
 soft         electrons   238.37751800490565     
 augmentation electrons   27.742826560483536     
 soft         electrons   238.37751800490565     
 augmentation electrons   27.742826560483536     
 soft         electrons   238.37751800490565     
 augmentation electrons   27.742826560483536     
 soft         electrons   238.37751800490565     
 augmentation electrons   27.742826560483536     
 soft         electrons   238.37751800490565     
 augmentation electrons   27.742826560483536     
 soft         electrons   238.37751800490565     
 augmentation electrons   27.742826560483536     
 soft         electrons   238.37751800490565     
 augmentation electrons   27.742826560483536     
 soft         electrons   238.37751800490565     
 augmentation electrons   27.742826560483536     
 soft         electrons   238.37751800490565     
 augmentation electrons   27.742826560483536     
 soft         electrons   238.37751800490565     
 augmentation electrons   27.742826560483536     
 soft         electrons   238.37751800490565     
 augmentation electrons   27.742826560483536     
 soft         electrons   238.37751800490565     
 augmentation electrons   27.742826560483536     
 soft         electrons   238.37751800490565     
 augmentation electrons   27.742826560483536     
 soft         electrons   238.37751800490565     
 augmentation electrons   27.742826560483536     
 soft         electrons   238.37751800490565     
 augmentation electrons   27.742826560483536     
 soft         electrons   238.37751800490565     
 augmentation electrons   27.742826560483536     
 soft         electrons   238.37751800490565     
 augmentation electrons   27.742826560483536     
 soft         electrons   238.37751800490565     
 augmentation electrons   27.742826560483536     
 soft         electrons   238.37751800490565     
 augmentation electrons   27.742826560483536     
 soft         electrons   238.37751800490565     
 augmentation electrons   27.742826560483536     
 soft         electrons   238.37751800490565     
 augmentation electrons   27.742826560483536     
 soft         electrons   238.37751800490565     
 augmentation electrons   27.742826560483536     
 soft         electrons   238.37751800490565     
 augmentation electrons   27.742826560483536     
 soft         electrons   238.37751800490565     
 augmentation electrons   27.742826560483536     
 soft         electrons   238.37751800490565     
 augmentation electrons   27.742826560483536     
 soft         electrons   238.37751800490565     
 augmentation electrons   27.742826560483536     
 soft         electrons   238.37751800490565     
 augmentation electrons   27.742826560483536     
 soft         electrons   238.37751800490565     
 augmentation electrons   27.742826560483536     
 soft         electrons   238.37751800490565     
 augmentation electrons   27.742826560483536     
 soft         electrons   238.37751800490565     
 augmentation electrons   27.742826560483536     
 soft         electrons   238.37751800490565     
 augmentation electrons   27.742826560483536     
 soft         electrons   238.37751800490565     
 total        electrons   266.12034456538919     
 total        electrons   266.12034456538919     
 total        electrons   266.12034456538919     
 total        electrons   266.12034456538919     
 total        electrons   266.12034456538919     
 total        electrons   266.12034456538919     
 total        electrons   266.12034456538919     
 total        electrons   266.12034456538919     
 total        electrons   266.12034456538919     
 total        electrons   266.12034456538919     
 total        electrons   266.12034456538919     
 total        electrons   266.12034456538919     
 total        electrons   266.12034456538919     
 total        electrons   266.12034456538919     
 total        electrons   266.12034456538919     
 total        electrons   266.12034456538919     
 total        electrons   266.12034456538919     
 total        electrons   266.12034456538919     
 total        electrons   266.12034456538919     
 total        electrons   266.12034456538919     
 total        electrons   266.12034456538919     
 total        electrons   266.12034456538919     
 total        electrons   266.12034456538919     
 total        electrons   266.12034456538919     
 total        electrons   266.12034456538919     
 total        electrons   266.12034456538919     
 total        electrons   266.12034456538919     
 total        electrons   266.12034456538919     
 total        electrons   266.12034456538919     
 total        electrons   266.12034456538919     
 total        electrons   266.12034456538919     
 total        electrons   266.12034456538919     
 total        electrons   266.12034456538919     
 total        electrons   266.12034456538919     
 total        electrons   266.12034456538919     
 total        electrons   266.12034456538919     
 total        electrons   266.12034456538919     
 total        electrons   266.12034456538919     
 total        electrons   266.12034456538919     
 total        electrons   266.12034456538919     
 total        electrons   266.12034456538919     
 total        electrons   266.12034456538919     
 total        electrons   266.12034456538919     
 total        electrons   266.12034456538919     
 total        electrons   266.12034456538919     
 total        electrons   266.12034456538919     
 total        electrons   266.12034456538919     
 total        electrons   266.12034456538919     
 total        electrons   266.12034456538919     
 total        electrons   266.12034456538919     
 total        electrons   266.12034456538919     
 total        electrons   266.12034456538919     
 total        electrons   266.12034456538919     
 total        electrons   266.12034456538919     
 total        electrons   266.12034456538919     
 total        electrons   266.12034456538919     
 total        electrons   266.12034456538919     
 total        electrons   266.12034456538919     
 total        electrons   266.12034456538919     
 total        electrons   266.12034456538919     
 total        electrons   266.12034456538919     
 total        electrons   266.12034456538919     
 total        electrons   266.12034456538919     
 total        electrons   266.12034456538919     
 total        electrons   266.12034456538919     
 total        electrons   266.12034456538919     
 total        electrons   266.12034456538919     
 total        electrons   266.12034456538919     
 total        electrons   266.12034456538919     
 total        electrons   266.12034456538919     
 total        electrons   266.12034456538919     
 total        electrons   266.12034456538919     
Note: The following floating-point exceptions are signalling: IEEE_OVERFLOW_FLAG
Note: The following floating-point exceptions are signalling: IEEE_OVERFLOW_FLAG
Note: The following floating-point exceptions are signalling: IEEE_OVERFLOW_FLAG
Note: The following floating-point exceptions are signalling: IEEE_OVERFLOW_FLAG
Note: The following floating-point exceptions are signalling: IEEE_OVERFLOW_FLAG
Note: The following floating-point exceptions are signalling: IEEE_OVERFLOW_FLAG
Note: The following floating-point exceptions are signalling: IEEE_OVERFLOW_FLAG
Note: The following floating-point exceptions are signalling: IEEE_OVERFLOW_FLAG
Note: The following floating-point exceptions are signalling: IEEE_OVERFLOW_FLAG
Note: The following floating-point exceptions are signalling: IEEE_OVERFLOW_FLAG
Note: The following floating-point exceptions are signalling: IEEE_OVERFLOW_FLAG
Note: The following floating-point exceptions are signalling: IEEE_OVERFLOW_FLAG
Note: The following floating-point exceptions are signalling: IEEE_OVERFLOW_FLAG
Note: The following floating-point exceptions are signalling: IEEE_OVERFLOW_FLAG
Note: The following floating-point exceptions are signalling: IEEE_OVERFLOW_FLAG
Note: The following floating-point exceptions are signalling: IEEE_OVERFLOW_FLAG
Note: The following floating-point exceptions are signalling: IEEE_OVERFLOW_FLAG
Note: The following floating-point exceptions are signalling: IEEE_OVERFLOW_FLAG
Note: The following floating-point exceptions are signalling: IEEE_OVERFLOW_FLAG
Note: The following floating-point exceptions are signalling: IEEE_OVERFLOW_FLAG
Note: The following floating-point exceptions are signalling: IEEE_OVERFLOW_FLAG
Note: The following floating-point exceptions are signalling: IEEE_OVERFLOW_FLAG
Note: The following floating-point exceptions are signalling: IEEE_OVERFLOW_FLAG
Note: The following floating-point exceptions are signalling: IEEE_OVERFLOW_FLAG
Note: The following floating-point exceptions are signalling: IEEE_OVERFLOW_FLAG
Note: The following floating-point exceptions are signalling: IEEE_OVERFLOW_FLAG
Note: The following floating-point exceptions are signalling: IEEE_OVERFLOW_FLAG
Note: The following floating-point exceptions are signalling: IEEE_OVERFLOW_FLAG
Note: The following floating-point exceptions are signalling: IEEE_OVERFLOW_FLAG
Note: The following floating-point exceptions are signalling: IEEE_OVERFLOW_FLAG
Note: The following floating-point exceptions are signalling: IEEE_OVERFLOW_FLAG
Note: The following floating-point exceptions are signalling: IEEE_OVERFLOW_FLAG
Note: The following floating-point exceptions are signalling: IEEE_OVERFLOW_FLAG
Note: The following floating-point exceptions are signalling: IEEE_OVERFLOW_FLAG
Note: The following floating-point exceptions are signalling: IEEE_OVERFLOW_FLAG
Note: The following floating-point exceptions are signalling: IEEE_OVERFLOW_FLAG
Note: The following floating-point exceptions are signalling: IEEE_OVERFLOW_FLAG
Note: The following floating-point exceptions are signalling: IEEE_OVERFLOW_FLAG
Note: The following floating-point exceptions are signalling: IEEE_OVERFLOW_FLAG
Note: The following floating-point exceptions are signalling: IEEE_OVERFLOW_FLAG
Note: The following floating-point exceptions are signalling: IEEE_OVERFLOW_FLAG
Note: The following floating-point exceptions are signalling: IEEE_OVERFLOW_FLAG
Note: The following floating-point exceptions are signalling: IEEE_OVERFLOW_FLAG
Note: The following floating-point exceptions are signalling: IEEE_OVERFLOW_FLAG
Note: The following floating-point exceptions are signalling: IEEE_OVERFLOW_FLAG
Note: The following floating-point exceptions are signalling: IEEE_OVERFLOW_FLAG
Note: The following floating-point exceptions are signalling: IEEE_OVERFLOW_FLAG
Note: The following floating-point exceptions are signalling: IEEE_OVERFLOW_FLAG
Note: The following floating-point exceptions are signalling: IEEE_OVERFLOW_FLAG
Note: The following floating-point exceptions are signalling: IEEE_OVERFLOW_FLAG
Note: The following floating-point exceptions are signalling: IEEE_OVERFLOW_FLAG
Note: The following floating-point exceptions are signalling: IEEE_OVERFLOW_FLAG
Note: The following floating-point exceptions are signalling: IEEE_OVERFLOW_FLAG
Note: The following floating-point exceptions are signalling: IEEE_OVERFLOW_FLAG
Note: The following floating-point exceptions are signalling: IEEE_OVERFLOW_FLAG
Note: The following floating-point exceptions are signalling: IEEE_OVERFLOW_FLAG
Note: The following floating-point exceptions are signalling: IEEE_OVERFLOW_FLAG
Note: The following floating-point exceptions are signalling: IEEE_OVERFLOW_FLAG
Note: The following floating-point exceptions are signalling: IEEE_OVERFLOW_FLAG
Note: The following floating-point exceptions are signalling: IEEE_OVERFLOW_FLAG
Note: The following floating-point exceptions are signalling: IEEE_OVERFLOW_FLAG
Note: The following floating-point exceptions are signalling: IEEE_OVERFLOW_FLAG
Note: The following floating-point exceptions are signalling: IEEE_OVERFLOW_FLAG
Note: The following floating-point exceptions are signalling: IEEE_OVERFLOW_FLAG
Note: The following floating-point exceptions are signalling: IEEE_OVERFLOW_FLAG
Note: The following floating-point exceptions are signalling: IEEE_OVERFLOW_FLAG
Note: The following floating-point exceptions are signalling: IEEE_OVERFLOW_FLAG
Note: The following floating-point exceptions are signalling: IEEE_OVERFLOW_FLAG
Note: The following floating-point exceptions are signalling: IEEE_OVERFLOW_FLAG
Note: The following floating-point exceptions are signalling: IEEE_OVERFLOW_FLAG
Note: The following floating-point exceptions are signalling: IEEE_OVERFLOW_FLAG
Note: The following floating-point exceptions are signalling: IEEE_OVERFLOW_FLAG
