   72   72   85    1
  0.2168974E+02  0.1053953E-08  0.6141200E-09  0.2412750E-08  0.5000000E-15
   1.0000000000000000E-004
  CAR 
 Name                                    
    267     23    176

  0.3742002E-15  0.3742002E-15  0.1262379E-14  0.2222222E-01
    1      -13.874692   1.000000
    2      -12.822621   1.000000
    3      -12.608187   1.000000
    4      -12.440638   1.000000
    5      -11.863882   1.000000
    6      -11.677654   1.000000
    7      -11.608443   1.000000
    8      -11.328936   1.000000
    9      -11.301056   1.000000
   10      -11.186762   1.000000
   11      -11.082948   1.000000
   12      -10.912422   1.000000
   13      -10.685268   1.000000
   14      -10.375675   1.000000
   15      -10.258588   1.000000
   16      -10.176967   1.000000
   17      -10.039324   1.000000
   18      -10.034261   1.000000
   19       -9.780085   1.000000
   20       -9.729268   1.000000
   21       -9.462933   1.000000
   22       -9.444782   1.000000
   23       -9.372034   1.000000
   24       -9.203586   1.000000
   25       -8.907499   1.000000
   26       -8.837493   1.000000
   27       -8.604506   1.000000
   28       -8.338535   1.000000
   29       -8.242950   1.000000
   30       -8.135766   1.000000
   31       -7.962318   1.000000
   32       -7.951113   1.000000
   33       -7.588164   1.000000
   34       -7.403837   1.000000
   35       -7.342542   1.000000
   36       -7.195155   1.000000
   37       -7.106947   1.000000
   38       -6.865779   1.000000
   39       -6.811967   1.000000
   40       -6.789475   1.000000
   41       -6.682748   1.000000
   42       -6.625912   1.000000
   43       -6.460570   1.000000
   44       -6.394177   1.000000
   45       -6.232615   1.000000
   46       -6.147444   1.000000
   47       -6.128605   1.000000
   48       -6.079926   1.000000
   49       -5.997808   1.000000
   50       -5.880456   1.000000
   51       -5.790364   1.000000
   52       -5.760459   1.000000
   53       -5.577765   1.000000
   54       -5.552229   1.000000
   55       -5.520201   1.000000
   56       -5.490032   1.000000
   57       -5.308447   1.000000
   58       -5.275687   1.000000
   59       -5.215655   1.000000
   60       -5.139640   1.000000
   61       -5.096873   1.000000
   62       -5.051841   1.000000
   63       -4.830849   1.000000
   64       -4.734363   1.000000
   65       -4.713507   1.000000
   66       -4.679231   1.000000
   67       -4.595821   1.000000
   68       -4.574356   1.000000
   69       -4.449469   1.000000
   70       -4.409048   1.000000
   71       -4.374528   1.000000
   72       -4.283894   1.000000
   73       -4.211566   1.000000
   74       -4.134056   1.000000
   75       -4.106679   1.000000
   76       -4.018787   1.000000
   77       -3.962894   1.000000
   78       -3.949205   1.000000
   79       -3.900490   1.000000
   80       -3.815045   1.000000
   81       -3.766895   1.000000
   82       -3.667470   1.000000
   83       -3.644452   1.000000
   84       -3.612880   1.000000
   85       -3.537532   1.000000
   86       -3.492146   1.000000
   87       -3.382933   1.000000
   88       -3.364364   1.000000
   89       -3.316598   1.000000
   90       -3.188266   1.000000
   91       -3.144360   1.000000
   92       -3.084612   1.000000
   93       -3.032150   1.000000
   94       -2.922032   1.000000
   95       -2.850056   1.000000
   96       -2.790729   1.000000
   97       -2.657205   1.000000
   98       -2.553271   1.000000
   99       -2.550599   1.000000
  100       -2.477064   1.000000
  101       -2.458633   1.000000
  102       -2.350607   1.000000
  103       -2.317281   1.000000
  104       -2.308336   1.000000
  105       -2.273326   1.000000
  106       -2.220082   1.000000
  107       -2.176821   1.000000
  108       -2.122774   1.000000
  109       -2.074095   1.000000
  110       -1.967360   1.000000
  111       -1.899369   1.000000
  112       -1.863151   1.000000
  113       -1.771581   1.000000
  114       -1.722647   1.000000
  115       -1.584899   1.000000
  116       -1.522695   1.000000
  117       -1.488665   1.000000
  118       -1.283448   1.000000
  119       -1.194024   1.000000
  120       -1.133657   1.000000
  121       -1.097921   1.000000
  122       -1.005670   1.000000
  123       -0.776441   1.000000
  124       -0.653492   1.000000
  125       -0.549405   1.000014
  126       -0.510182   1.000046
  127       -0.445466   1.000272
  128       -0.317343   1.004599
  129       -0.174810   1.029896
  130       -0.156832   1.033188
  131       -0.077277   1.020503
  132        0.019840   0.855902
  133        0.049603   0.760244
  134        0.063055   0.710983
  135        0.182449   0.231047
  136        0.256179   0.037718
  137        0.265024   0.023515
  138        0.307678  -0.021035
  139        0.383734  -0.033583
  140        0.526621  -0.006572
  141        0.597046  -0.001705
  142        0.611624  -0.001242
  143        0.692995  -0.000170
  144        0.718945  -0.000083
  145        0.813206  -0.000005
  146        0.915398  -0.000000
  147        0.953964  -0.000000
  148        1.010869  -0.000000
  149        1.049645  -0.000000
  150        1.098335  -0.000000
  151        1.139514  -0.000000
  152        1.191243  -0.000000
  153        1.232483  -0.000000
  154        1.238417  -0.000000
  155        1.246444  -0.000000
  156        1.270862  -0.000000
  157        1.371724  -0.000000
  158        1.398158  -0.000000
  159        1.426796  -0.000000
  160        1.476988  -0.000000
  161        1.500536  -0.000000
  162        1.510462  -0.000000
  163        1.523215  -0.000000
  164        1.542799  -0.000000
  165        1.580725  -0.000000
  166        1.622026  -0.000000
  167        1.690607  -0.000000
  168        1.718438  -0.000000
  169        1.766471  -0.000000
  170        1.802637  -0.000000
  171        1.883653  -0.000000
  172        1.920127  -0.000000
  173        1.967415  -0.000000
  174        1.985212  -0.000000
  175        2.087275  -0.000000
  176        2.202660  -0.000000

  0.2000000E+00  0.3742002E-15  0.1262379E-14  0.4444444E-01
    1      -13.847793   1.000000
    2      -12.946556   1.000000
    3      -12.707940   1.000000
    4      -12.137752   1.000000
    5      -11.962750   1.000000
    6      -11.862558   1.000000
    7      -11.357344   1.000000
    8      -11.315264   1.000000
    9      -11.212265   1.000000
   10      -11.129867   1.000000
   11      -11.050466   1.000000
   12      -10.914056   1.000000
   13      -10.664989   1.000000
   14      -10.527436   1.000000
   15      -10.394940   1.000000
   16      -10.214470   1.000000
   17      -10.166920   1.000000
   18      -10.062121   1.000000
   19       -9.826084   1.000000
   20       -9.716934   1.000000
   21       -9.512309   1.000000
   22       -9.467842   1.000000
   23       -9.317529   1.000000
   24       -9.158124   1.000000
   25       -8.904791   1.000000
   26       -8.785947   1.000000
   27       -8.389112   1.000000
   28       -8.268716   1.000000
   29       -8.160280   1.000000
   30       -8.065714   1.000000
   31       -8.021436   1.000000
   32       -7.915320   1.000000
   33       -7.516079   1.000000
   34       -7.443072   1.000000
   35       -7.403513   1.000000
   36       -7.232513   1.000000
   37       -7.170869   1.000000
   38       -6.950549   1.000000
   39       -6.822882   1.000000
   40       -6.806151   1.000000
   41       -6.770850   1.000000
   42       -6.629283   1.000000
   43       -6.590403   1.000000
   44       -6.475092   1.000000
   45       -6.334472   1.000000
   46       -6.204787   1.000000
   47       -6.032199   1.000000
   48       -5.955193   1.000000
   49       -5.916347   1.000000
   50       -5.875895   1.000000
   51       -5.792117   1.000000
   52       -5.752869   1.000000
   53       -5.718233   1.000000
   54       -5.509409   1.000000
   55       -5.469625   1.000000
   56       -5.408268   1.000000
   57       -5.326143   1.000000
   58       -5.236170   1.000000
   59       -5.138954   1.000000
   60       -5.099952   1.000000
   61       -5.037619   1.000000
   62       -4.969809   1.000000
   63       -4.940515   1.000000
   64       -4.783868   1.000000
   65       -4.702484   1.000000
   66       -4.632131   1.000000
   67       -4.596487   1.000000
   68       -4.523711   1.000000
   69       -4.444980   1.000000
   70       -4.404103   1.000000
   71       -4.345487   1.000000
   72       -4.252855   1.000000
   73       -4.178486   1.000000
   74       -4.130010   1.000000
   75       -4.115635   1.000000
   76       -4.030896   1.000000
   77       -3.985350   1.000000
   78       -3.962945   1.000000
   79       -3.911699   1.000000
   80       -3.838030   1.000000
   81       -3.815945   1.000000
   82       -3.750880   1.000000
   83       -3.695778   1.000000
   84       -3.632194   1.000000
   85       -3.523179   1.000000
   86       -3.465127   1.000000
   87       -3.463408   1.000000
   88       -3.320739   1.000000
   89       -3.308449   1.000000
   90       -3.221037   1.000000
   91       -3.134009   1.000000
   92       -3.112740   1.000000
   93       -2.989638   1.000000
   94       -2.904328   1.000000
   95       -2.843576   1.000000
   96       -2.794068   1.000000
   97       -2.677880   1.000000
   98       -2.643761   1.000000
   99       -2.584905   1.000000
  100       -2.475138   1.000000
  101       -2.438351   1.000000
  102       -2.419768   1.000000
  103       -2.346092   1.000000
  104       -2.306044   1.000000
  105       -2.241298   1.000000
  106       -2.194558   1.000000
  107       -2.109257   1.000000
  108       -2.083960   1.000000
  109       -1.983222   1.000000
  110       -1.950242   1.000000
  111       -1.869829   1.000000
  112       -1.785819   1.000000
  113       -1.712526   1.000000
  114       -1.669532   1.000000
  115       -1.568422   1.000000
  116       -1.524283   1.000000
  117       -1.466326   1.000000
  118       -1.268356   1.000000
  119       -1.197130   1.000000
  120       -1.143668   1.000000
  121       -1.108346   1.000000
  122       -1.059116   1.000000
  123       -0.856963   1.000000
  124       -0.683266   1.000000
  125       -0.648248   1.000000
  126       -0.533476   1.000023
  127       -0.505447   1.000052
  128       -0.431604   1.000386
  129       -0.265657   1.010823
  130       -0.196349   1.025117
  131       -0.087986   1.026506
  132       -0.027783   0.964278
  133        0.081140   0.640155
  134        0.106915   0.533273
  135        0.132134   0.426897
  136        0.201988   0.167043
  137        0.306319  -0.020158
  138        0.389744  -0.032653
  139        0.417713  -0.026994
  140        0.513921  -0.008107
  141        0.609339  -0.001307
  142        0.618079  -0.001075
  143        0.691867  -0.000175
  144        0.755353  -0.000029
  145        0.871164  -0.000001
  146        0.906046  -0.000000
  147        0.949125  -0.000000
  148        1.037158  -0.000000
  149        1.048134  -0.000000
  150        1.110545  -0.000000
  151        1.172632  -0.000000
  152        1.192014  -0.000000
  153        1.229997  -0.000000
  154        1.308280  -0.000000
  155        1.311532  -0.000000
  156        1.369029  -0.000000
  157        1.391268  -0.000000
  158        1.412134  -0.000000
  159        1.439978  -0.000000
  160        1.485075  -0.000000
  161        1.524478  -0.000000
  162        1.543549  -0.000000
  163        1.560157  -0.000000
  164        1.588725  -0.000000
  165        1.602749  -0.000000
  166        1.658115  -0.000000
  167        1.681953  -0.000000
  168        1.716404  -0.000000
  169        1.747263  -0.000000
  170        1.798481  -0.000000
  171        1.877138  -0.000000
  172        1.909752  -0.000000
  173        1.962856  -0.000000
  174        1.995614  -0.000000
  175        2.059545  -0.000000
  176        2.151096  -0.000000

  0.4000000E+00  0.3742002E-15  0.1262379E-14  0.4444444E-01
    1      -13.793856   1.000000
    2      -13.146457   1.000000
    3      -12.619667   1.000000
    4      -12.303404   1.000000
    5      -11.860388   1.000000
    6      -11.572571   1.000000
    7      -11.394982   1.000000
    8      -11.317433   1.000000
    9      -11.089519   1.000000
   10      -11.061553   1.000000
   11      -10.932917   1.000000
   12      -10.908026   1.000000
   13      -10.705384   1.000000
   14      -10.615844   1.000000
   15      -10.511848   1.000000
   16      -10.465013   1.000000
   17      -10.178789   1.000000
   18      -10.089372   1.000000
   19      -10.070909   1.000000
   20       -9.861189   1.000000
   21       -9.488113   1.000000
   22       -9.339736   1.000000
   23       -9.254365   1.000000
   24       -9.115341   1.000000
   25       -8.974676   1.000000
   26       -8.687021   1.000000
   27       -8.235741   1.000000
   28       -8.085524   1.000000
   29       -7.997391   1.000000
   30       -7.944150   1.000000
   31       -7.846883   1.000000
   32       -7.730298   1.000000
   33       -7.616261   1.000000
   34       -7.542653   1.000000
   35       -7.408583   1.000000
   36       -7.387356   1.000000
   37       -7.291080   1.000000
   38       -7.204655   1.000000
   39       -7.064217   1.000000
   40       -6.874834   1.000000
   41       -6.804915   1.000000
   42       -6.716406   1.000000
   43       -6.552844   1.000000
   44       -6.482039   1.000000
   45       -6.268610   1.000000
   46       -6.217007   1.000000
   47       -6.055572   1.000000
   48       -5.994493   1.000000
   49       -5.909801   1.000000
   50       -5.864278   1.000000
   51       -5.776641   1.000000
   52       -5.694061   1.000000
   53       -5.587100   1.000000
   54       -5.527485   1.000000
   55       -5.465743   1.000000
   56       -5.401199   1.000000
   57       -5.328832   1.000000
   58       -5.290764   1.000000
   59       -5.172050   1.000000
   60       -5.042717   1.000000
   61       -4.918121   1.000000
   62       -4.899022   1.000000
   63       -4.824987   1.000000
   64       -4.736574   1.000000
   65       -4.674943   1.000000
   66       -4.611506   1.000000
   67       -4.515660   1.000000
   68       -4.498815   1.000000
   69       -4.419859   1.000000
   70       -4.393450   1.000000
   71       -4.319004   1.000000
   72       -4.286399   1.000000
   73       -4.163524   1.000000
   74       -4.129325   1.000000
   75       -4.101079   1.000000
   76       -4.064804   1.000000
   77       -4.045315   1.000000
   78       -3.974999   1.000000
   79       -3.919954   1.000000
   80       -3.896866   1.000000
   81       -3.880236   1.000000
   82       -3.785165   1.000000
   83       -3.772908   1.000000
   84       -3.614975   1.000000
   85       -3.595030   1.000000
   86       -3.493952   1.000000
   87       -3.445907   1.000000
   88       -3.319170   1.000000
   89       -3.299435   1.000000
   90       -3.262399   1.000000
   91       -3.104039   1.000000
   92       -3.071976   1.000000
   93       -3.028963   1.000000
   94       -3.017503   1.000000
   95       -2.886139   1.000000
   96       -2.779192   1.000000
   97       -2.761578   1.000000
   98       -2.710166   1.000000
   99       -2.543476   1.000000
  100       -2.511714   1.000000
  101       -2.462372   1.000000
  102       -2.425299   1.000000
  103       -2.329705   1.000000
  104       -2.225602   1.000000
  105       -2.197047   1.000000
  106       -2.139500   1.000000
  107       -2.104606   1.000000
  108       -2.014024   1.000000
  109       -1.886806   1.000000
  110       -1.875501   1.000000
  111       -1.824664   1.000000
  112       -1.672539   1.000000
  113       -1.644212   1.000000
  114       -1.560276   1.000000
  115       -1.544397   1.000000
  116       -1.475567   1.000000
  117       -1.425916   1.000000
  118       -1.276675   1.000000
  119       -1.220708   1.000000
  120       -1.195496   1.000000
  121       -1.126940   1.000000
  122       -1.066372   1.000000
  123       -0.944686   1.000000
  124       -0.800866   1.000000
  125       -0.730821   1.000000
  126       -0.679717   1.000000
  127       -0.649204   1.000000
  128       -0.517784   1.000037
  129       -0.427602   1.000427
  130       -0.287806   1.007665
  131       -0.068871   1.014437
  132       -0.061345   1.007903
  133        0.064794   0.704384
  134        0.082624   0.634155
  135        0.138579   0.400106
  136        0.225562   0.101756
  137        0.327249  -0.030444
  138        0.360391  -0.035456
  139        0.439830  -0.021903
  140        0.557243  -0.003796
  141        0.591448  -0.001919
  142        0.656984  -0.000429
  143        0.749327  -0.000034
  144        0.758671  -0.000026
  145        0.909637  -0.000000
  146        0.936969  -0.000000
  147        0.980190  -0.000000
  148        1.051813  -0.000000
  149        1.142158  -0.000000
  150        1.193591  -0.000000
  151        1.214408  -0.000000
  152        1.234062  -0.000000
  153        1.292382  -0.000000
  154        1.323761  -0.000000
  155        1.399011  -0.000000
  156        1.408506  -0.000000
  157        1.433104  -0.000000
  158        1.445099  -0.000000
  159        1.487947  -0.000000
  160        1.511610  -0.000000
  161        1.550349  -0.000000
  162        1.578974  -0.000000
  163        1.596047  -0.000000
  164        1.628862  -0.000000
  165        1.672204  -0.000000
  166        1.690382  -0.000000
  167        1.704254  -0.000000
  168        1.756697  -0.000000
  169        1.774838  -0.000000
  170        1.821997  -0.000000
  171        1.862142  -0.000000
  172        1.907123  -0.000000
  173        1.928201  -0.000000
  174        1.943658  -0.000000
  175        2.025191  -0.000000
  176        2.074818  -0.000000

  0.3742002E-15  0.1111111E+00  0.1262379E-14  0.4444444E-01
    1      -13.828964   1.000000
    2      -12.781419   1.000000
    3      -12.572240   1.000000
    4      -12.409117   1.000000
    5      -11.945590   1.000000
    6      -11.647105   1.000000
    7      -11.579694   1.000000
    8      -11.369505   1.000000
    9      -11.330915   1.000000
   10      -11.227999   1.000000
   11      -11.058556   1.000000
   12      -10.928095   1.000000
   13      -10.717296   1.000000
   14      -10.386618   1.000000
   15      -10.245871   1.000000
   16      -10.175640   1.000000
   17      -10.058740   1.000000
   18      -10.023243   1.000000
   19       -9.773988   1.000000
   20       -9.697017   1.000000
   21       -9.489850   1.000000
   22       -9.444616   1.000000
   23       -9.363305   1.000000
   24       -9.211228   1.000000
   25       -8.927309   1.000000
   26       -8.815943   1.000000
   27       -8.595484   1.000000
   28       -8.343068   1.000000
   29       -8.247805   1.000000
   30       -8.146954   1.000000
   31       -7.957539   1.000000
   32       -7.823134   1.000000
   33       -7.676804   1.000000
   34       -7.436321   1.000000
   35       -7.373901   1.000000
   36       -7.248304   1.000000
   37       -7.165867   1.000000
   38       -6.862452   1.000000
   39       -6.833305   1.000000
   40       -6.738325   1.000000
   41       -6.630492   1.000000
   42       -6.589265   1.000000
   43       -6.446051   1.000000
   44       -6.368335   1.000000
   45       -6.212420   1.000000
   46       -6.175448   1.000000
   47       -6.102353   1.000000
   48       -6.059263   1.000000
   49       -6.034403   1.000000
   50       -5.892294   1.000000
   51       -5.809855   1.000000
   52       -5.736578   1.000000
   53       -5.614544   1.000000
   54       -5.549844   1.000000
   55       -5.468020   1.000000
   56       -5.404859   1.000000
   57       -5.311759   1.000000
   58       -5.280746   1.000000
   59       -5.174704   1.000000
   60       -5.088557   1.000000
   61       -5.077970   1.000000
   62       -5.024372   1.000000
   63       -4.823510   1.000000
   64       -4.749770   1.000000
   65       -4.701854   1.000000
   66       -4.683001   1.000000
   67       -4.598292   1.000000
   68       -4.523250   1.000000
   69       -4.459642   1.000000
   70       -4.429033   1.000000
   71       -4.385873   1.000000
   72       -4.321891   1.000000
   73       -4.249340   1.000000
   74       -4.206631   1.000000
   75       -4.047301   1.000000
   76       -3.999915   1.000000
   77       -3.979205   1.000000
   78       -3.935712   1.000000
   79       -3.883070   1.000000
   80       -3.851077   1.000000
   81       -3.780362   1.000000
   82       -3.696510   1.000000
   83       -3.652710   1.000000
   84       -3.606501   1.000000
   85       -3.555411   1.000000
   86       -3.479855   1.000000
   87       -3.386647   1.000000
   88       -3.328649   1.000000
   89       -3.319933   1.000000
   90       -3.232333   1.000000
   91       -3.133931   1.000000
   92       -3.090759   1.000000
   93       -3.053195   1.000000
   94       -3.010209   1.000000
   95       -2.894609   1.000000
   96       -2.822173   1.000000
   97       -2.737586   1.000000
   98       -2.670072   1.000000
   99       -2.538441   1.000000
  100       -2.497344   1.000000
  101       -2.460342   1.000000
  102       -2.384045   1.000000
  103       -2.358484   1.000000
  104       -2.328232   1.000000
  105       -2.265531   1.000000
  106       -2.227139   1.000000
  107       -2.155628   1.000000
  108       -2.143293   1.000000
  109       -2.051284   1.000000
  110       -1.968653   1.000000
  111       -1.886110   1.000000
  112       -1.838315   1.000000
  113       -1.729325   1.000000
  114       -1.674536   1.000000
  115       -1.542780   1.000000
  116       -1.492437   1.000000
  117       -1.442944   1.000000
  118       -1.285852   1.000000
  119       -1.185345   1.000000
  120       -1.107921   1.000000
  121       -1.075646   1.000000
  122       -0.899140   1.000000
  123       -0.782814   1.000000
  124       -0.698669   1.000000
  125       -0.596924   1.000003
  126       -0.546319   1.000015
  127       -0.406200   1.000715
  128       -0.354539   1.002235
  129       -0.278066   1.008958
  130       -0.236617   1.016137
  131       -0.074780   1.018832
  132       -0.031473   0.970326
  133        0.056032   0.737115
  134        0.102553   0.551655
  135        0.191436   0.200564
  136        0.281000   0.002425
  137        0.317520  -0.026489
  138        0.355181  -0.035375
  139        0.417333  -0.027080
  140        0.479462  -0.013549
  141        0.590468  -0.001959
  142        0.658688  -0.000411
  143        0.681270  -0.000231
  144        0.775642  -0.000015
  145        0.797853  -0.000008
  146        0.863842  -0.000001
  147        0.979474  -0.000000
  148        1.011583  -0.000000
  149        1.021747  -0.000000
  150        1.077866  -0.000000
  151        1.134262  -0.000000
  152        1.172418  -0.000000
  153        1.202862  -0.000000
  154        1.262286  -0.000000
  155        1.303624  -0.000000
  156        1.360909  -0.000000
  157        1.369131  -0.000000
  158        1.389846  -0.000000
  159        1.415761  -0.000000
  160        1.418154  -0.000000
  161        1.451822  -0.000000
  162        1.486061  -0.000000
  163        1.535913  -0.000000
  164        1.544412  -0.000000
  165        1.594497  -0.000000
  166        1.622233  -0.000000
  167        1.653708  -0.000000
  168        1.695905  -0.000000
  169        1.751897  -0.000000
  170        1.838482  -0.000000
  171        1.885896  -0.000000
  172        1.918522  -0.000000
  173        1.946504  -0.000000
  174        2.045163  -0.000000
  175        2.114751  -0.000000
  176        2.171744  -0.000000

  0.2000000E+00  0.1111111E+00  0.1262379E-14  0.4444444E-01
    1      -13.802325   1.000000
    2      -12.906731   1.000000
    3      -12.669733   1.000000
    4      -12.104802   1.000000
    5      -11.951465   1.000000
    6      -11.924026   1.000000
    7      -11.410458   1.000000
    8      -11.349619   1.000000
    9      -11.185502   1.000000
   10      -11.153950   1.000000
   11      -11.026050   1.000000
   12      -10.935721   1.000000
   13      -10.690679   1.000000
   14      -10.514244   1.000000
   15      -10.397680   1.000000
   16      -10.222265   1.000000
   17      -10.150297   1.000000
   18      -10.082974   1.000000
   19       -9.818102   1.000000
   20       -9.710309   1.000000
   21       -9.514082   1.000000
   22       -9.471572   1.000000
   23       -9.313681   1.000000
   24       -9.166337   1.000000
   25       -8.901212   1.000000
   26       -8.777968   1.000000
   27       -8.380173   1.000000
   28       -8.274923   1.000000
   29       -8.179759   1.000000
   30       -8.085312   1.000000
   31       -8.006221   1.000000
   32       -7.787598   1.000000
   33       -7.591049   1.000000
   34       -7.517312   1.000000
   35       -7.400874   1.000000
   36       -7.275736   1.000000
   37       -7.195341   1.000000
   38       -6.945118   1.000000
   39       -6.859247   1.000000
   40       -6.771955   1.000000
   41       -6.721896   1.000000
   42       -6.601449   1.000000
   43       -6.533882   1.000000
   44       -6.461450   1.000000
   45       -6.350617   1.000000
   46       -6.246388   1.000000
   47       -6.078906   1.000000
   48       -5.997103   1.000000
   49       -5.916751   1.000000
   50       -5.842561   1.000000
   51       -5.774987   1.000000
   52       -5.707930   1.000000
   53       -5.671660   1.000000
   54       -5.512397   1.000000
   55       -5.483347   1.000000
   56       -5.401632   1.000000
   57       -5.242749   1.000000
   58       -5.209783   1.000000
   59       -5.143986   1.000000
   60       -5.084947   1.000000
   61       -5.003967   1.000000
   62       -4.943170   1.000000
   63       -4.901001   1.000000
   64       -4.808512   1.000000
   65       -4.703925   1.000000
   66       -4.596594   1.000000
   67       -4.570379   1.000000
   68       -4.493498   1.000000
   69       -4.465119   1.000000
   70       -4.400828   1.000000
   71       -4.356633   1.000000
   72       -4.286439   1.000000
   73       -4.235948   1.000000
   74       -4.192963   1.000000
   75       -4.086562   1.000000
   76       -4.049088   1.000000
   77       -3.984877   1.000000
   78       -3.953234   1.000000
   79       -3.919124   1.000000
   80       -3.841414   1.000000
   81       -3.780600   1.000000
   82       -3.762328   1.000000
   83       -3.710207   1.000000
   84       -3.613873   1.000000
   85       -3.563512   1.000000
   86       -3.481034   1.000000
   87       -3.425703   1.000000
   88       -3.352264   1.000000
   89       -3.303226   1.000000
   90       -3.235807   1.000000
   91       -3.167241   1.000000
   92       -3.081679   1.000000
   93       -3.060684   1.000000
   94       -2.941348   1.000000
   95       -2.897580   1.000000
   96       -2.832547   1.000000
   97       -2.752037   1.000000
   98       -2.646739   1.000000
   99       -2.617347   1.000000
  100       -2.538320   1.000000
  101       -2.470290   1.000000
  102       -2.429121   1.000000
  103       -2.364645   1.000000
  104       -2.286226   1.000000
  105       -2.218896   1.000000
  106       -2.169476   1.000000
  107       -2.129570   1.000000
  108       -2.089401   1.000000
  109       -2.024402   1.000000
  110       -1.999840   1.000000
  111       -1.843569   1.000000
  112       -1.759432   1.000000
  113       -1.675364   1.000000
  114       -1.626980   1.000000
  115       -1.557335   1.000000
  116       -1.487150   1.000000
  117       -1.430178   1.000000
  118       -1.292156   1.000000
  119       -1.230609   1.000000
  120       -1.146664   1.000000
  121       -1.120923   1.000000
  122       -0.980417   1.000000
  123       -0.790066   1.000000
  124       -0.736273   1.000000
  125       -0.631261   1.000001
  126       -0.597945   1.000003
  127       -0.475171   1.000123
  128       -0.333462   1.003399
  129       -0.310624   1.005191
  130       -0.244562   1.014557
  131       -0.107826   1.033231
  132       -0.041775   0.985516
  133        0.051510   0.753463
  134        0.117690   0.487712
  135        0.151381   0.347992
  136        0.225540   0.101810
  137        0.323448  -0.029058
  138        0.337606  -0.033276
  139        0.486948  -0.012206
  140        0.539230  -0.005281
  141        0.583496  -0.002263
  142        0.666752  -0.000336
  143        0.679920  -0.000239
  144        0.792553  -0.000009
  145        0.857712  -0.000001
  146        0.892741  -0.000000
  147        0.973280  -0.000000
  148        1.013968  -0.000000
  149        1.054911  -0.000000
  150        1.106883  -0.000000
  151        1.173478  -0.000000
  152        1.208639  -0.000000
  153        1.240463  -0.000000
  154        1.279604  -0.000000
  155        1.327906  -0.000000
  156        1.360456  -0.000000
  157        1.390801  -0.000000
  158        1.414265  -0.000000
  159        1.421379  -0.000000
  160        1.450933  -0.000000
  161        1.476455  -0.000000
  162        1.505583  -0.000000
  163        1.519197  -0.000000
  164        1.547515  -0.000000
  165        1.595288  -0.000000
  166        1.637882  -0.000000
  167        1.672168  -0.000000
  168        1.718278  -0.000000
  169        1.792195  -0.000000
  170        1.842754  -0.000000
  171        1.877274  -0.000000
  172        1.903607  -0.000000
  173        1.944880  -0.000000
  174        2.003551  -0.000000
  175        2.058877  -0.000000
  176        2.136200  -0.000000

  0.4000000E+00  0.1111111E+00  0.1262379E-14  0.4444444E-01
    1      -13.748938   1.000000
    2      -13.105549   1.000000
    3      -12.582312   1.000000
    4      -12.265606   1.000000
    5      -11.936084   1.000000
    6      -11.562971   1.000000
    7      -11.447104   1.000000
    8      -11.349800   1.000000
    9      -11.079288   1.000000
   10      -11.058508   1.000000
   11      -10.949322   1.000000