 running on   72 total cores
 distrk:  each k-point on   72 cores,    1 groups
 distr:  one band on    9 cores,    8 groups
 using from now: INCAR     
 vasp.5.4.4.18Apr17-6-g9f103f2a35 (build Dec  7 2020 12:43:57) complex           
 POSCAR found type information on POSCAR  Mo V  B  H 
 POSCAR found :  4 types and      72 ions
 scaLAPACK will be used
 LDA part: xc-table for Pade appr. of Perdew
 POSCAR, INCAR and KPOINTS ok, starting setup
 resort distribution
 resort distribution
 resort distribution
 resort distribution
 resort distribution
 resort distribution
 resort distribution
 resort distribution
 resort distribution
 resort distribution
 resort distribution
 resort distribution
 resort distribution
 resort distribution
 resort distribution
 resort distribution
 resort distribution
 resort distribution
 resort distribution
 resort distribution
 resort distribution
 resort distribution
 resort distribution
 resort distribution
 resort distribution
 resort distribution
 resort distribution
 resort distribution
 resort distribution
 resort distribution
 resort distribution
 resort distribution
 resort distribution
 resort distribution
 resort distribution
 resort distribution
 resort distribution
 resort distribution
 resort distribution
 resort distribution
 resort distribution
 resort distribution
 resort distribution
 resort distribution
 resort distribution
 resort distribution
 resort distribution
 resort distribution
 resort distribution
 resort distribution
 resort distribution
 resort distribution
 resort distribution
 resort distribution
 resort distribution
 resort distribution
 resort distribution
 resort distribution
 resort distribution
 resort distribution
 resort distribution
 resort distribution
 resort distribution
 resort distribution
 resort distribution
 resort distribution
 resort distribution
 resort distribution
 resort distribution
 resort distribution
 resort distribution
 resort distribution
 FFT: planning ...
 WAVECAR not read
 augmentation electrons   267.01690196156142     
 soft         electrons   0.0000000000000000     
 augmentation electrons   267.01690196156142     
 soft         electrons   0.0000000000000000     
 augmentation electrons   267.01690196156142     
 soft         electrons   0.0000000000000000     
 augmentation electrons   267.01690196156142     
 soft         electrons   0.0000000000000000     
 augmentation electrons   267.01690196156142     
 soft         electrons   0.0000000000000000     
 augmentation electrons   267.01690196156142     
 soft         electrons   0.0000000000000000     
 augmentation electrons   267.01690196156142     
 soft         electrons   0.0000000000000000     
 augmentation electrons   267.01690196156142     
 soft         electrons   0.0000000000000000     
 augmentation electrons   267.01690196156142     
 soft         electrons   0.0000000000000000     
 augmentation electrons   267.01690196156142     
 soft         electrons   0.0000000000000000     
 augmentation electrons   267.01690196156142     
 soft         electrons   0.0000000000000000     
 augmentation electrons   267.01690196156142     
 soft         electrons   0.0000000000000000     
 augmentation electrons   267.01690196156142     
 soft         electrons   0.0000000000000000     
 augmentation electrons   267.01690196156142     
 soft         electrons   0.0000000000000000     
 augmentation electrons   267.01690196156142     
 soft         electrons   0.0000000000000000     
 augmentation electrons   267.01690196156142     
 soft         electrons   0.0000000000000000     
 augmentation electrons   267.01690196156142     
 soft         electrons   0.0000000000000000     
 augmentation electrons   267.01690196156142     
 soft         electrons   0.0000000000000000     
 augmentation electrons   267.01690196156142     
 soft         electrons   0.0000000000000000     
 augmentation electrons   267.01690196156142     
 soft         electrons   0.0000000000000000     
 augmentation electrons   267.01690196156142     
 soft         electrons   0.0000000000000000     
 augmentation electrons   267.01690196156142     
 soft         electrons   0.0000000000000000     
 augmentation electrons   267.01690196156142     
 soft         electrons   0.0000000000000000     
 augmentation electrons   267.01690196156142     
 soft         electrons   0.0000000000000000     
 augmentation electrons   267.01690196156142     
 soft         electrons   0.0000000000000000     
 augmentation electrons   267.01690196156142     
 soft         electrons   0.0000000000000000     
 augmentation electrons   267.01690196156142     
 soft         electrons   0.0000000000000000     
 augmentation electrons   267.01690196156142     
 soft         electrons   0.0000000000000000     
 augmentation electrons   267.01690196156142     
 soft         electrons   0.0000000000000000     
 augmentation electrons   267.01690196156142     
 soft         electrons   0.0000000000000000     
 augmentation electrons   267.01690196156142     
 augmentation electrons   267.01690196156142     
 soft         electrons   0.0000000000000000     
 augmentation electrons   267.01690196156142     
 soft         electrons   0.0000000000000000     
 augmentation electrons   267.01690196156142     
 soft         electrons   0.0000000000000000     
 augmentation electrons   267.01690196156142     
 soft         electrons   0.0000000000000000     
 augmentation electrons   267.01690196156142     
 soft         electrons   0.0000000000000000     
 augmentation electrons   267.01690196156142     
 soft         electrons   0.0000000000000000     
 augmentation electrons   267.01690196156142     
 soft         electrons   0.0000000000000000     
 augmentation electrons   267.01690196156142     
 soft         electrons   0.0000000000000000     
 augmentation electrons   267.01690196156142     
 soft         electrons   0.0000000000000000     
 augmentation electrons   267.01690196156142     
 soft         electrons   0.0000000000000000     
 total        electrons   267.01690196156142     
 augmentation electrons   267.01690196156142     
 soft         electrons   0.0000000000000000     
 total        electrons   267.01690196156142     
 augmentation electrons   267.01690196156142     
 soft         electrons   0.0000000000000000     
 total        electrons   267.01690196156142     
 augmentation electrons   267.01690196156142     
 soft         electrons   0.0000000000000000     
 total        electrons   267.01690196156142     
 augmentation electrons   267.01690196156142     
 soft         electrons   0.0000000000000000     
 total        electrons   267.01690196156142     
 augmentation electrons   267.01690196156142     
 soft         electrons   0.0000000000000000     
 total        electrons   267.01690196156142     
 augmentation electrons   267.01690196156142     
 soft         electrons   0.0000000000000000     
 total        electrons   267.01690196156142     
 augmentation electrons   267.01690196156142     
 soft         electrons   0.0000000000000000     
 total        electrons   267.01690196156142     
 augmentation electrons   267.01690196156142     
 soft         electrons   0.0000000000000000     
 total        electrons   267.01690196156142     
 augmentation electrons   267.01690196156142     
 soft         electrons   0.0000000000000000     
 total        electrons   267.01690196156142     
 augmentation electrons   267.01690196156142     
 soft         electrons   0.0000000000000000     
 total        electrons   267.01690196156142     
 augmentation electrons   267.01690196156142     
 soft         electrons   0.0000000000000000     
 total        electrons   267.01690196156142     
 augmentation electrons   267.01690196156142     
 soft         electrons   0.0000000000000000     
 total        electrons   267.01690196156142     
 augmentation electrons   267.01690196156142     
 soft         electrons   0.0000000000000000     
 total        electrons   267.01690196156142     
 augmentation electrons   267.01690196156142     
 soft         electrons   0.0000000000000000     
 total        electrons   267.01690196156142     
 augmentation electrons   267.01690196156142     
 soft         electrons   0.0000000000000000     
 total        electrons   267.01690196156142     
 augmentation electrons   267.01690196156142     
 soft         electrons   0.0000000000000000     
 total        electrons   267.01690196156142     
 augmentation electrons   267.01690196156142     
 soft         electrons   0.0000000000000000     
 total        electrons   267.01690196156142     
 augmentation electrons   267.01690196156142     
 soft         electrons   0.0000000000000000     
 total        electrons   267.01690196156142     
 augmentation electrons   267.01690196156142     
 soft         electrons   0.0000000000000000     
 total        electrons   267.01690196156142     
 augmentation electrons   267.01690196156142     
 soft         electrons   0.0000000000000000     
 total        electrons   267.01690196156142     
 augmentation electrons   267.01690196156142     
 soft         electrons   0.0000000000000000     
 total        electrons   267.01690196156142     
 augmentation electrons   267.01690196156142     
 soft         electrons   0.0000000000000000     
 total        electrons   267.01690196156142     
 augmentation electrons   267.01690196156142     
 soft         electrons   0.0000000000000000     
 total        electrons   267.01690196156142     
 augmentation electrons   267.01690196156142     
 soft         electrons   0.0000000000000000     
 total        electrons   267.01690196156142     
 augmentation electrons   267.01690196156142     
 soft         electrons   0.0000000000000000     
 total        electrons   267.01690196156142     
 augmentation electrons   267.01690196156142     
 soft         electrons   0.0000000000000000     
 total        electrons   267.01690196156142     
 augmentation electrons   267.01690196156142     
 soft         electrons   0.0000000000000000     
 total        electrons   267.01690196156142     
 augmentation electrons   267.01690196156142     
 soft         electrons   0.0000000000000000     
 total        electrons   267.01690196156142     
 total        electrons   267.01690196156142     
 total        electrons   267.01690196156142     
 total        electrons   267.01690196156142     
 total        electrons   267.01690196156142     
 augmentation electrons   267.01690196156142     
 soft         electrons   0.0000000000000000     
 total        electrons   267.01690196156142     
 augmentation electrons   267.01690196156142     
 soft         electrons   0.0000000000000000     
 total        electrons   267.01690196156142     
 total        electrons   267.01690196156142     
 total        electrons   267.01690196156142     
 augmentation electrons   267.01690196156142     
 soft         electrons   0.0000000000000000     
 total        electrons   267.01690196156142     
 total        electrons   267.01690196156142     
 total        electrons   267.01690196156142     
 total        electrons   267.01690196156142     
 total        electrons   267.01690196156142     
 total        electrons   267.01690196156142     
 total        electrons   267.01690196156142     
 total        electrons   267.01690196156142     
 total        electrons   267.01690196156142     
 total        electrons   267.01690196156142     
 total        electrons   267.01690196156142     
 total        electrons   267.01690196156142     
 total        electrons   267.01690196156142     
 total        electrons   267.01690196156142     
 total        electrons   267.01690196156142     
 total        electrons   267.01690196156142     
 total        electrons   267.01690196156142     
 total        electrons   267.01690196156142     
 total        electrons   267.01690196156142     
 total        electrons   267.01690196156142     
 total        electrons   267.01690196156142     
 total        electrons   267.01690196156142     
 total        electrons   267.01690196156142     
 total        electrons   267.01690196156142     
 total        electrons   267.01690196156142     
 total        electrons   267.01690196156142     
 total        electrons   267.01690196156142     
 total        electrons   267.01690196156142     
 total        electrons   267.01690196156142     
 soft         electrons   0.0000000000000000     
 total        electrons   267.01690196156142     
 total        electrons   267.01690196156142     
 total        electrons   267.01690196156142     
 total        electrons   267.01690196156142     
 total        electrons   267.01690196156142     
 total        electrons   267.01690196156142     
 augmentation electrons   853.25631657386850     
 soft         electrons   0.0000000000000000     
 augmentation electrons   853.25631657386850     
 soft         electrons   0.0000000000000000     
 augmentation electrons   853.25631657386850     
 soft         electrons   0.0000000000000000     
 augmentation electrons   853.25631657386850     
 soft         electrons   0.0000000000000000     
 augmentation electrons   853.25631657386850     
 soft         electrons   0.0000000000000000     
 augmentation electrons   853.25631657386850     
 soft         electrons   0.0000000000000000     
 augmentation electrons   853.25631657386850     
 soft         electrons   0.0000000000000000     
 augmentation electrons   853.25631657386850     
 augmentation electrons   853.25631657386850     
 soft         electrons   0.0000000000000000     
 augmentation electrons   853.25631657386850     
 soft         electrons   0.0000000000000000     
 augmentation electrons   853.25631657386850     
 soft         electrons   0.0000000000000000     
 augmentation electrons   853.25631657386850     
 soft         electrons   0.0000000000000000     
 augmentation electrons   853.25631657386850     
 soft         electrons   0.0000000000000000     
 augmentation electrons   853.25631657386850     
 soft         electrons   0.0000000000000000     
 augmentation electrons   853.25631657386850     
 soft         electrons   0.0000000000000000     
 augmentation electrons   853.25631657386850     
 soft         electrons   0.0000000000000000     
 augmentation electrons   853.25631657386850     
 soft         electrons   0.0000000000000000     
 augmentation electrons   853.25631657386850     
 soft         electrons   0.0000000000000000     
 augmentation electrons   853.25631657386850     
 soft         electrons   0.0000000000000000     
 augmentation electrons   853.25631657386850     
 soft         electrons   0.0000000000000000     
 augmentation electrons   853.25631657386850     
 soft         electrons   0.0000000000000000     
 augmentation electrons   853.25631657386850     
 soft         electrons   0.0000000000000000     
 augmentation electrons   853.25631657386850     
 soft         electrons   0.0000000000000000     
 augmentation electrons   853.25631657386850     
 soft         electrons   0.0000000000000000     
 augmentation electrons   853.25631657386850     
 soft         electrons   0.0000000000000000     
 augmentation electrons   853.25631657386850     
 soft         electrons   0.0000000000000000     
 augmentation electrons   853.25631657386850     
 soft         electrons   0.0000000000000000     
 augmentation electrons   853.25631657386850     
 soft         electrons   0.0000000000000000     
 augmentation electrons   853.25631657386850     
 soft         electrons   0.0000000000000000     
 augmentation electrons   853.25631657386850     
 soft         electrons   0.0000000000000000     
 augmentation electrons   853.25631657386850     
 soft         electrons   0.0000000000000000     
 augmentation electrons   853.25631657386850     
 soft         electrons   0.0000000000000000     
 augmentation electrons   853.25631657386850     
 soft         electrons   0.0000000000000000     
 augmentation electrons   853.25631657386850     
 soft         electrons   0.0000000000000000     
 augmentation electrons   853.25631657386850     
 soft         electrons   0.0000000000000000     
 augmentation electrons   853.25631657386850     
 soft         electrons   0.0000000000000000     
 augmentation electrons   853.25631657386850     
 soft         electrons   0.0000000000000000     
 augmentation electrons   853.25631657386850     
 soft         electrons   0.0000000000000000     
 augmentation electrons   853.25631657386850     
 soft         electrons   0.0000000000000000     
 augmentation electrons   853.25631657386850     
 soft         electrons   0.0000000000000000     
 augmentation electrons   853.25631657386850     
 soft         electrons   0.0000000000000000     
 augmentation electrons   853.25631657386850     
 soft         electrons   0.0000000000000000     
 augmentation electrons   853.25631657386850     
 soft         electrons   0.0000000000000000     
 augmentation electrons   853.25631657386850     
 soft         electrons   0.0000000000000000     
 augmentation electrons   853.25631657386850     
 soft         electrons   0.0000000000000000     
 augmentation electrons   853.25631657386850     
 soft         electrons   0.0000000000000000     
 augmentation electrons   853.25631657386850     
 soft         electrons   0.0000000000000000     
 augmentation electrons   853.25631657386850     
 soft         electrons   0.0000000000000000     
 augmentation electrons   853.25631657386850     
 soft         electrons   0.0000000000000000     
 augmentation electrons   853.25631657386850     
 soft         electrons   0.0000000000000000     
 augmentation electrons   853.25631657386850     
 soft         electrons   0.0000000000000000     
 augmentation electrons   853.25631657386850     
 soft         electrons   0.0000000000000000     
 augmentation electrons   853.25631657386850     
 soft         electrons   0.0000000000000000     
 augmentation electrons   853.25631657386850     
 soft         electrons   0.0000000000000000     
 augmentation electrons   853.25631657386850     
 soft         electrons   0.0000000000000000     
 augmentation electrons   853.25631657386850     
 soft         electrons   0.0000000000000000     
 augmentation electrons   853.25631657386850     
 soft         electrons   0.0000000000000000     
 augmentation electrons   853.25631657386850     
 soft         electrons   0.0000000000000000     
 augmentation electrons   853.25631657386850     
 soft         electrons   0.0000000000000000     
 augmentation electrons   853.25631657386850     
 soft         electrons   0.0000000000000000     
 augmentation electrons   853.25631657386850     
 soft         electrons   0.0000000000000000     
 augmentation electrons   853.25631657386850     
 soft         electrons   0.0000000000000000     
 augmentation electrons   853.25631657386850     
 soft         electrons   0.0000000000000000     
 augmentation electrons   853.25631657386850     
 soft         electrons   0.0000000000000000     
 augmentation electrons   853.25631657386850     
 soft         electrons   0.0000000000000000     
 augmentation electrons   853.25631657386850     
 soft         electrons   0.0000000000000000     
 augmentation electrons   853.25631657386850     
 soft         electrons   0.0000000000000000     
 augmentation electrons   853.25631657386850     
 soft         electrons   0.0000000000000000     
 augmentation electrons   853.25631657386850     
 soft         electrons   0.0000000000000000     
 augmentation electrons   853.25631657386850     
 soft         electrons   0.0000000000000000     
 augmentation electrons   853.25631657386850     
 soft         electrons   0.0000000000000000     
 augmentation electrons   853.25631657386850     
 soft         electrons   0.0000000000000000     
 soft         electrons   0.0000000000000000     
 total        electrons   853.25631657386850     
 total        electrons   853.25631657386850     
 total        electrons   853.25631657386850     
 total        electrons   853.25631657386850     
 total        electrons   853.25631657386850     
 total        electrons   853.25631657386850     
 total        electrons   853.25631657386850     
 total        electrons   853.25631657386850     
 total        electrons   853.25631657386850     
 total        electrons   853.25631657386850     
 total        electrons   853.25631657386850     
 total        electrons   853.25631657386850     
 total        electrons   853.25631657386850     
 total        electrons   853.25631657386850     
 total        electrons   853.25631657386850     
 total        electrons   853.25631657386850     
 total        electrons   853.25631657386850     
 total        electrons   853.25631657386850     
 total        electrons   853.25631657386850     
 total        electrons   853.25631657386850     
 total        electrons   853.25631657386850     
 total        electrons   853.25631657386850     
 total        electrons   853.25631657386850     
 total        electrons   853.25631657386850     
 total        electrons   853.25631657386850     
 total        electrons   853.25631657386850     
 total        electrons   853.25631657386850     
 total        electrons   853.25631657386850     
 total        electrons   853.25631657386850     
 total        electrons   853.25631657386850     
 total        electrons   853.25631657386850     
 total        electrons   853.25631657386850     
 total        electrons   853.25631657386850     
 total        electrons   853.25631657386850     
 total        electrons   853.25631657386850     
 total        electrons   853.25631657386850     
 total        electrons   853.25631657386850     
 total        electrons   853.25631657386850     
 total        electrons   853.25631657386850     
 total        electrons   853.25631657386850     
 total        electrons   853.25631657386850     
 total        electrons   853.25631657386850     
 total        electrons   853.25631657386850     
 total        electrons   853.25631657386850     
 total        electrons   853.25631657386850     
 total        electrons   853.25631657386850     
 total        electrons   853.25631657386850     
 total        electrons   853.25631657386850     
 total        electrons   853.25631657386850     
 total        electrons   853.25631657386850     
 total        electrons   853.25631657386850     
 total        electrons   853.25631657386850     
 total        electrons   853.25631657386850     
 total        electrons   853.25631657386850     
 total        electrons   853.25631657386850     
 total        electrons   853.25631657386850     
 total        electrons   853.25631657386850     
 total        electrons   853.25631657386850     
 total        electrons   853.25631657386850     
 total        electrons   853.25631657386850     
 total        electrons   853.25631657386850     
 total        electrons   853.25631657386850     
 total        electrons   853.25631657386850     
 total        electrons   853.25631657386850     
 total        electrons   853.25631657386850     
 total        electrons   853.25631657386850     
 total        electrons   853.25631657386850     
 total        electrons   853.25631657386850     
 total        electrons   853.25631657386850     
 total        electrons   853.25631657386850     
 total        electrons   853.25631657386850     
 total        electrons   853.25631657386850     
 entering main loop
       N       E                     dE             d eps       ncg     rms          rms(c)
DAV:   1     0.228230113798E+04    0.22823E+04   -0.95288E+04  8096   0.123E+03
DAV:   2    -0.216210805742E+03   -0.24985E+04   -0.23131E+04  9280   0.302E+02
DAV:   3    -0.628843391570E+03   -0.41263E+03   -0.39326E+03 11488   0.143E+02
DAV:   4    -0.661783086319E+03   -0.32940E+02   -0.31658E+02 13048   0.452E+01
DAV:   5    -0.663553093153E+03   -0.17700E+01   -0.17194E+01 13816   0.103E+01    0.135E+02
RMM:   6    -0.624121978636E+03    0.39431E+02   -0.12314E+03 11392   0.918E+01    0.754E+01
RMM:   7    -0.730447130314E+03   -0.10633E+03   -0.40657E+02 10792   0.567E+01    0.553E+01
RMM:   8    -0.625205828373E+03    0.10524E+03   -0.20512E+02 11092   0.264E+01    0.439E+01
RMM:   9    -0.571047034268E+03    0.54159E+02   -0.45590E+01  9357   0.209E+01    0.270E+01
RMM:  10    -0.560366413059E+03    0.10681E+02   -0.45433E+01 10084   0.167E+01    0.210E+01
RMM:  11    -0.558598475612E+03    0.17679E+01   -0.87262E+00  8777   0.933E+00    0.174E+01
RMM:  12    -0.558195876218E+03    0.40260E+00   -0.46257E+00 10724   0.336E+00    0.153E+01
RMM:  13    -0.557972630367E+03    0.22325E+00   -0.50491E-01 11149   0.116E+00    0.144E+01
RMM:  14    -0.557837884374E+03    0.13475E+00   -0.12500E+00  9345   0.318E+00    0.123E+01
RMM:  15    -0.557213949065E+03    0.62394E+00   -0.22172E+00  8233   0.522E+00    0.633E+00
RMM:  16    -0.556760861289E+03    0.45309E+00   -0.13923E+00  8451   0.354E+00    0.390E+00
RMM:  17    -0.556674737661E+03    0.86124E-01   -0.99467E-01 10821   0.201E+00    0.258E+00
RMM:  18    -0.556663709313E+03    0.11028E-01   -0.33289E-01 10623   0.126E+00    0.211E+00
RMM:  19    -0.556635918942E+03    0.27790E-01   -0.15719E-01  9258   0.102E+00    0.134E+00
RMM:  20    -0.556630783335E+03    0.51356E-02   -0.75468E-02  9240   0.737E-01    0.104E+00
RMM:  21    -0.556618569680E+03    0.12214E-01   -0.33563E-02  9234   0.468E-01    0.481E-01
RMM:  22    -0.556619050027E+03   -0.48035E-03   -0.16477E-02  9231   0.331E-01    0.474E-01
RMM:  23    -0.556617758241E+03    0.12918E-02   -0.80512E-03  9123   0.234E-01    0.242E-01
RMM:  24    -0.556618283678E+03   -0.52544E-03   -0.54684E-03 10886   0.114E-01    0.152E-01
RMM:  25    -0.556618710175E+03   -0.42650E-03   -0.14732E-03 10487   0.719E-02    0.872E-02
RMM:  26    -0.556620051176E+03   -0.13410E-02   -0.89135E-04 10394   0.589E-02    0.969E-02
RMM:  27    -0.556620783699E+03   -0.73252E-03   -0.46685E-04  8593   0.607E-02    0.698E-02
RMM:  28    -0.556621663941E+03   -0.88024E-03   -0.45666E-04  9736   0.439E-02    0.484E-02
RMM:  29    -0.556622302931E+03   -0.63899E-03   -0.23421E-04 10276   0.247E-02    0.368E-02
RMM:  30    -0.556622491801E+03   -0.18887E-03   -0.14734E-04 10205   0.237E-02    0.252E-02
RMM:  31    -0.556622594999E+03   -0.10320E-03   -0.33747E-05  7897   0.160E-02    0.165E-02
RMM:  32    -0.556622731424E+03   -0.13642E-03   -0.30302E-05  8206   0.115E-02    0.143E-02
RMM:  33    -0.556622834088E+03   -0.10266E-03   -0.22013E-05  7665   0.653E-03    0.108E-02
RMM:  34    -0.556622970623E+03   -0.13653E-03   -0.10798E-05  6436   0.770E-03    0.910E-03
RMM:  35    -0.556623120054E+03   -0.14943E-03   -0.10846E-05  6332   0.604E-03    0.682E-03
RMM:  36    -0.556623213385E+03   -0.93331E-04   -0.96080E-06  6572   0.875E-03    0.135E-02
RMM:  37    -0.556623248519E+03   -0.35134E-04   -0.47447E-06  5849   0.782E-03    0.418E-03
RMM:  38    -0.556623308800E+03   -0.60282E-04   -0.78274E-06  6132   0.385E-03    0.393E-03
RMM:  39    -0.556623319363E+03   -0.10562E-04   -0.17592E-06  5339   0.440E-03    0.387E-03
RMM:  40    -0.556623332563E+03   -0.13200E-04   -0.19968E-06  5545   0.381E-03    0.315E-03
RMM:  41    -0.556623337715E+03   -0.51524E-05   -0.74794E-07  4518   0.175E-03    0.863E-04
RMM:  42    -0.556623340956E+03   -0.32402E-05   -0.39418E-07  3954   0.139E-03    0.126E-03
RMM:  43    -0.556623342218E+03   -0.12624E-05   -0.23827E-07  3982   0.135E-03    0.363E-04
RMM:  44    -0.556623342924E+03   -0.70592E-06   -0.16816E-07  2909   0.764E-04
   1 F= -.55662334E+03 E0= -.55661294E+03  d E =-.556623E+03
 curvature:   0.00 expect dE= 0.000E+00 dE for cont linesearch  0.000E+00
 trial: gam= 0.00000 g(F)=  0.711E-01 g(S)=  0.000E+00 ort = 0.000E+00 (trialstep = 0.100E+01)
 search vector abs. value=  0.711E-01
 bond charge predicted
       N       E                     dE             d eps       ncg     rms          rms(c)
DAV:   1    -0.556673444602E+03   -0.50102E-01   -0.12199E+00  9048   0.233E+00    0.373E-01
RMM:   2    -0.556673807722E+03   -0.36312E-03   -0.27659E-02  9654   0.486E-01    0.280E-01
RMM:   3    -0.556681084136E+03   -0.72764E-02   -0.94692E-03  9964   0.282E-01    0.742E-01
RMM:   4    -0.556673068028E+03    0.80161E-02   -0.41858E-03  9689   0.191E-01    0.143E-01
RMM:   5    -0.556673538682E+03   -0.47065E-03   -0.20267E-03  9531   0.126E-01    0.254E-01
RMM:   6    -0.556673011381E+03    0.52730E-03   -0.10700E-03  8772   0.105E-01    0.117E-01
RMM:   7    -0.556672837828E+03    0.17355E-03   -0.37699E-04  9361   0.567E-02    0.511E-02
RMM:   8    -0.556672819863E+03    0.17965E-04   -0.15670E-04 10012   0.313E-02    0.301E-02
RMM:   9    -0.556672816128E+03    0.37353E-05   -0.68946E-05 10328   0.171E-02    0.197E-02
RMM:  10    -0.556672814682E+03    0.14454E-05   -0.25260E-05  8336   0.133E-02    0.185E-02
RMM:  11    -0.556672811562E+03    0.31203E-05   -0.92950E-06  6561   0.969E-03    0.830E-03
RMM:  12    -0.556672811019E+03    0.54342E-06   -0.34033E-06  5809   0.486E-03
   2 F= -.55667281E+03 E0= -.55666266E+03  d E =-.494681E-01
 trial-energy change:   -0.049468  1 .order   -0.048799   -0.071072   -0.026526
 step:   1.5236(harm=  1.5955)  dis= 0.01787  next Energy=  -556.679852 (dE=-0.565E-01)
 bond charge predicted
       N       E                     dE             d eps       ncg     rms          rms(c)
DAV:   1    -0.556680117901E+03   -0.73063E-02   -0.33998E-01  8600   0.123E+00    0.205E-01
RMM:   2    -0.556680209909E+03   -0.92008E-04   -0.80164E-03  9599   0.264E-01    0.159E-01
RMM:   3    -0.556682237185E+03   -0.20273E-02   -0.26773E-03  9920   0.151E-01    0.395E-01
RMM:   4    -0.556679982898E+03    0.22543E-02   -0.12305E-03  9671   0.103E-01    0.887E-02
RMM:   5    -0.556680093272E+03   -0.11037E-03   -0.59478E-04  9086   0.738E-02    0.135E-01
RMM:   6    -0.556679954232E+03    0.13904E-03   -0.33468E-04  9045   0.579E-02    0.706E-02
RMM:   7    -0.556679896172E+03    0.58061E-04   -0.12237E-04  8863   0.359E-02    0.341E-02
RMM:   8    -0.556679885857E+03    0.10314E-04   -0.50536E-05  9538   0.185E-02    0.170E-02
RMM:   9    -0.556679886420E+03   -0.56302E-06   -0.21733E-05  8643   0.115E-02    0.150E-02
RMM:  10    -0.556679884736E+03    0.16849E-05   -0.98110E-06  6531   0.940E-03    0.104E-02
RMM:  11    -0.556679883804E+03    0.93143E-06   -0.38892E-06  5844   0.625E-03
   3 F= -.55667988E+03 E0= -.55666986E+03  d E =-.565409E-01
 curvature:  -0.79 expect dE=-0.106E-02 dE for cont linesearch -0.818E-08
 trial: gam= 0.01866 g(F)=  0.135E-02 g(S)=  0.000E+00 ort = 0.272E-04 (trialstep = 0.110E+01)
 search vector abs. value=  0.138E-02
 bond charge predicted
       N       E                     dE             d eps       ncg     rms          rms(c)
DAV:   1    -0.556681272281E+03   -0.13875E-02   -0.26671E-02  8544   0.353E-01    0.422E-02
RMM:   2    -0.556681355664E+03   -0.83384E-04   -0.60520E-04  8380   0.993E-02    0.728E-02
RMM:   3    -0.556681331213E+03    0.24451E-04   -0.13609E-04  9897   0.386E-02    0.401E-02
RMM:   4    -0.556681334814E+03   -0.36006E-05   -0.58318E-05 10291   0.152E-02    0.383E-02
RMM:   5    -0.556681320254E+03    0.14560E-04   -0.40633E-05  8573   0.185E-02    0.292E-02
RMM:   6    -0.556681330653E+03   -0.10399E-04   -0.40012E-05  8457   0.189E-02    0.369E-02
RMM:   7    -0.556681314787E+03    0.15866E-04   -0.14777E-05  7426   0.135E-02    0.978E-03
RMM:   8    -0.556681314050E+03    0.73711E-06   -0.36864E-06  5846   0.678E-03
   4 F= -.55668131E+03 E0= -.55667132E+03  d E =-.143025E-02
 ZBRENT: can't locate minimum, use default step
 trial-energy change:   -0.001430  1 .order   -0.001426   -0.001496   -0.001356
 step:   4.4189(harm= 11.8411)  dis= 0.01737  next Energy=  -556.685019 (dE=-0.514E-02)
 bond charge predicted
       N       E                     dE             d eps       ncg     rms          rms(c)
DAV:   1    -0.556684435593E+03   -0.31208E-02   -0.24052E-01  8408   0.106E+00    0.127E-01
RMM:   2    -0.556685175920E+03   -0.74033E-03   -0.51677E-03  8550   0.277E-01    0.221E-01
RMM:   3    -0.556684895577E+03    0.28034E-03   -0.11472E-03  9896   0.112E-01    0.112E-01
RMM:   4    -0.556685022059E+03   -0.12648E-03   -0.57742E-04 10860   0.468E-02    0.125E-01
RMM:   5    -0.556684823436E+03    0.19862E-03   -0.41949E-04  8963   0.591E-02    0.880E-02
RMM:   6    -0.556684878696E+03   -0.55260E-04   -0.34484E-04  9125   0.542E-02    0.949E-02
RMM:   7    -0.556684766170E+03    0.11253E-03   -0.11090E-04  8789   0.351E-02    0.303E-02
RMM:   8    -0.556684758423E+03    0.77478E-05   -0.34096E-05  8239   0.179E-02    0.167E-02
RMM:   9    -0.556684755892E+03    0.25307E-05   -0.13680E-05  7284   0.776E-03    0.623E-03
RMM:  10    -0.556684756245E+03   -0.35360E-06   -0.39767E-06  5865   0.581E-03
   5 F= -.55668476E+03 E0= -.55667486E+03  d E =-.487244E-02
 curvature:  -3.15 expect dE=-0.285E-02 dE for cont linesearch -0.160E-02
 ZBRENT: increasing intervall
 opt :  11.0472  next Energy=  -556.687729 (dE=-0.784E-02)
 bond charge predicted
       N       E                     dE             d eps       ncg     rms          rms(c)
DAV:   1    -0.556686449773E+03   -0.16939E-02   -0.96233E-01  8256   0.212E+00    0.258E-01
RMM:   2    -0.556689682541E+03   -0.32328E-02   -0.21474E-02  8565   0.560E-01    0.474E-01
RMM:   3    -0.556688207354E+03    0.14752E-02   -0.47113E-03  9832   0.231E-01    0.220E-01
RMM:   4    -0.556688894271E+03   -0.68692E-03   -0.24962E-03 10884   0.978E-02    0.265E-01
RMM:   5    -0.556687959876E+03    0.93439E-03   -0.17333E-03  8985   0.121E-01    0.183E-01
RMM:   6    -0.556688102699E+03   -0.14282E-03   -0.14034E-03  9150   0.110E-01    0.182E-01
RMM:   7    -0.556687704999E+03    0.39770E-03   -0.43124E-04  8763   0.691E-02    0.649E-02
RMM:   8    -0.556687664854E+03    0.40145E-04   -0.13757E-04  8512   0.367E-02    0.311E-02
RMM:   9    -0.556687657175E+03    0.76787E-05   -0.60155E-05  9794   0.147E-02    0.131E-02
RMM:  10    -0.556687659869E+03   -0.26935E-05   -0.18554E-05  7876   0.113E-02    0.169E-02
RMM:  11    -0.556687657578E+03    0.22907E-05   -0.62884E-06  6250   0.817E-03    0.634E-03
RMM:  12    -0.556687658858E+03   -0.12796E-05   -0.33455E-06  5909   0.412E-03    0.386E-03
RMM:  13    -0.556687659852E+03   -0.99392E-06   -0.10361E-06  4948   0.391E-03
   6 F= -.55668766E+03 E0= -.55667794E+03  d E =-.777605E-02
 curvature:  -5.84 expect dE=-0.141E-01 dE for cont linesearch -0.157E-05
 trial: gam= 1.79418 g(F)=  0.241E-02 g(S)=  0.000E+00 ort = 0.193E-04 (trialstep = 0.617E+00)
 search vector abs. value=  0.692E-02
 bond charge predicted
       N       E                     dE             d eps       ncg     rms          rms(c)
DAV:   1    -0.556688896089E+03   -0.12372E-02   -0.42451E-02  8664   0.443E-01    0.556E-02
RMM:   2    -0.556689005350E+03   -0.10926E-03   -0.97048E-04  8645   0.117E-01    0.865E-02
RMM:   3    -0.556688977519E+03    0.27832E-04   -0.22860E-04  9934   0.489E-02    0.531E-02
RMM:   4    -0.556689009209E+03   -0.31691E-04   -0.12129E-04 10717   0.205E-02    0.587E-02
RMM:   5    -0.556688959788E+03    0.49422E-04   -0.82829E-05  9148   0.260E-02    0.378E-02
RMM:   6    -0.556688968461E+03   -0.86729E-05   -0.67298E-05  9283   0.227E-02    0.399E-02
RMM:   7    -0.556688950319E+03    0.18142E-04   -0.21861E-05  7800   0.154E-02    0.135E-02
RMM:   8    -0.556688948566E+03    0.17527E-05   -0.63515E-06  6320   0.784E-03    0.732E-03
RMM:   9    -0.556688948553E+03    0.13464E-07   -0.24377E-06  5456   0.514E-03
   7 F= -.55668895E+03 E0= -.55667929E+03  d E =-.128870E-02
 trial-energy change:   -0.001289  1 .order   -0.001278   -0.001508   -0.001048
 step:   1.6376(harm=  2.0208)  dis= 0.01508  next Energy=  -556.689866 (dE=-0.221E-02)
 bond charge predicted
       N       E                     dE             d eps       ncg     rms          rms(c)
DAV:   1    -0.556689941359E+03   -0.99279E-03   -0.11648E-01  8320   0.734E-01    0.927E-02
RMM:   2    -0.556690257825E+03   -0.31647E-03   -0.26550E-03  8733   0.190E-01    0.149E-01
RMM:   3    -0.556690150315E+03    0.10751E-03   -0.61226E-04  9924   0.803E-02    0.845E-02
RMM:   4    -0.556690250824E+03   -0.10051E-03   -0.36306E-04 10852   0.368E-02    0.102E-01
RMM:   5    -0.556690102374E+03    0.14845E-03   -0.23794E-04  9086   0.448E-02    0.615E-02
RMM:   6    -0.556690120933E+03   -0.18560E-04   -0.18043E-04  9504   0.373E-02    0.633E-02
RMM:   7    -0.556690072978E+03    0.47955E-04   -0.58307E-05  8601   0.247E-02    0.215E-02
RMM:   8    -0.556690068636E+03    0.43422E-05   -0.18956E-05  7819   0.127E-02    0.122E-02
RMM:   9    -0.556690067566E+03    0.10694E-05   -0.72497E-06  6505   0.671E-03    0.614E-03
RMM:  10    -0.556690067752E+03   -0.18532E-06   -0.24517E-06  5464   0.495E-03
   8 F= -.55669007E+03 E0= -.55668049E+03  d E =-.240790E-02
 curvature:  -2.65 expect dE=-0.999E-03 dE for cont linesearch -0.845E-04
 ZBRENT: extrapolating
 opt :   2.0281  next Energy=  -556.690160 (dE=-0.250E-02)
 bond charge predicted
       N       E                     dE             d eps       ncg     rms          rms(c)
DAV:   1    -0.556690143098E+03   -0.75532E-04   -0.17034E-02  8536   0.281E-01    0.358E-02
RMM:   2    -0.556690197960E+03   -0.54862E-04   -0.42049E-04  8429   0.793E-02    0.622E-02
RMM:   3    -0.556690176602E+03    0.21358E-04   -0.97304E-05  9830   0.322E-02    0.324E-02
RMM:   4    -0.556690188980E+03   -0.12378E-04   -0.48777E-05 10227   0.129E-02    0.356E-02
RMM:   5    -0.556690171273E+03    0.17707E-04   -0.32584E-05  8683   0.159E-02    0.249E-02
RMM:   6    -0.556690175172E+03   -0.38992E-05   -0.27725E-05  8097   0.158E-02    0.270E-02
RMM:   7    -0.556690167298E+03    0.78741E-05   -0.84495E-06  6384   0.101E-02    0.101E-02
RMM:   8    -0.556690166420E+03    0.87825E-06   -0.26740E-06  5478   0.657E-03
   9 F= -.55669017E+03 E0= -.55668062E+03  d E =-.250657E-02
 curvature:  -2.87 expect dE=-0.120E-02 dE for cont linesearch -0.577E-07
 trial: gam= 0.14969 g(F)=  0.419E-03 g(S)=  0.000E+00 ort = 0.118E-04 (trialstep = 0.899E+00)
 search vector abs. value=  0.577E-03
 bond charge predicted
       N       E                     dE             d eps       ncg     rms          rms(c)
DAV:   1    -0.556690526837E+03   -0.35954E-03   -0.73896E-03  8408   0.182E-01    0.249E-02
RMM:   2    -0.556690541568E+03   -0.14731E-04   -0.15598E-04  8598   0.479E-02    0.269E-02
RMM:   3    -0.556690550446E+03   -0.88777E-05   -0.47418E-05  9484   0.215E-02    0.318E-02
RMM:   4    -0.556690548529E+03    0.19169E-05   -0.17888E-05  8765   0.977E-03    0.234E-02
RMM:   5    -0.556690543508E+03    0.50205E-05   -0.13214E-05  7038   0.111E-02    0.203E-02
RMM:   6    -0.556690541150E+03    0.23586E-05   -0.90085E-06  6734   0.846E-03    0.106E-02
RMM:   7    -0.556690540365E+03    0.78465E-06   -0.33500E-06  5705   0.678E-03
  10 F= -.55669054E+03 E0= -.55668101E+03  d E =-.373945E-03
 ZBRENT: can't locate minimum, use default step
 trial-energy change:   -0.000374  1 .order   -0.000372   -0.000378   -0.000366
 step:   3.5953(harm= 28.0606)  dis= 0.01406  next Energy=  -556.696063 (dE=-0.590E-02)
 bond charge predicted
       N       E                     dE             d eps       ncg     rms          rms(c)
DAV:   1    -0.556691484453E+03   -0.94330E-03   -0.66565E-02  8192   0.545E-01    0.739E-02
RMM:   2    -0.556691597716E+03   -0.11326E-03   -0.13148E-03  8839   0.133E-01    0.753E-02
RMM:   3    -0.556691692592E+03   -0.94875E-04   -0.41563E-04  9776   0.644E-02    0.985E-02
RMM:   4    -0.556691679809E+03    0.12783E-04   -0.16929E-04 10372   0.284E-02    0.719E-02
RMM:   5    -0.556691608814E+03    0.70995E-04   -0.11474E-04  9334   0.302E-02    0.525E-02
RMM:   6    -0.556691596547E+03    0.12267E-04   -0.84673E-05  9632   0.233E-02    0.345E-02
RMM:   7    -0.556691584226E+03    0.12321E-04   -0.30310E-05  8264   0.168E-02    0.164E-02
RMM:   8    -0.556691579584E+03    0.46418E-05   -0.77811E-06  6495   0.785E-03    0.532E-03
RMM:   9    -0.556691579779E+03   -0.19502E-06   -0.34906E-06  5693   0.535E-03
  11 F= -.55669158E+03 E0= -.55668214E+03  d E =-.141336E-02
 curvature:  -3.64 expect dE=-0.145E-02 dE for cont linesearch -0.825E-03
 ZBRENT: increasing intervall
 opt :   8.9882  next Energy=  -556.693289 (dE=-0.312E-02)
 bond charge predicted
       N       E                     dE             d eps       ncg     rms          rms(c)
DAV:   1    -0.556692972594E+03   -0.13930E-02   -0.26687E-01  8112   0.109E+00    0.147E-01
RMM:   2    -0.556693413214E+03   -0.44062E-03   -0.51811E-03  9044   0.254E-01    0.150E-01
RMM:   3    -0.556693747120E+03   -0.33391E-03   -0.16254E-03  9712   0.129E-01    0.193E-01
RMM:   4    -0.556693735976E+03    0.11145E-04   -0.66287E-04 10324   0.578E-02    0.142E-01
RMM:   5    -0.556693454361E+03    0.28161E-03   -0.41108E-04  9505   0.559E-02    0.103E-01
RMM:   6    -0.556693386200E+03    0.68162E-04   -0.30283E-04  9740   0.440E-02    0.632E-02
RMM:   7    -0.556693350592E+03    0.35608E-04   -0.11892E-04  8983   0.329E-02    0.349E-02
RMM:   8    -0.556693330762E+03    0.19830E-04   -0.32405E-05  8728   0.164E-02    0.112E-02
RMM:   9    -0.556693330973E+03   -0.21080E-06   -0.14900E-05  7032   0.838E-03    0.915E-03
RMM:  10    -0.556693330504E+03    0.46902E-06   -0.44059E-06  5970   0.614E-03
  12 F= -.55669333E+03 E0= -.55668404E+03  d E =-.316408E-02
 curvature:  -7.53 expect dE=-0.543E-02 dE for cont linesearch -0.104E-02
 ZBRENT: increasing intervall
 opt :  19.7741  next Energy=  -556.695503 (dE=-0.534E-02)
 bond charge predicted
       N       E                     dE             d eps       ncg     rms          rms(c)
DAV:   1    -0.556694206948E+03   -0.87598E-03   -0.10676E+00  8112   0.218E+00    0.290E-01
RMM:   2    -0.556696051470E+03   -0.18445E-02   -0.20713E-02  9164   0.500E-01    0.309E-01
RMM:   3    -0.556697127933E+03   -0.10765E-02   -0.61740E-03  9668   0.252E-01    0.362E-01
RMM:   4    -0.556697398641E+03   -0.27071E-03   -0.27157E-03 10533   0.107E-01    0.298E-01
RMM:   5    -0.556696079772E+03    0.13189E-02   -0.16987E-03  9425   0.115E-01    0.196E-01
RMM:   6    -0.556695871080E+03    0.20869E-03   -0.12588E-03  9821   0.871E-02    0.122E-01
RMM:   7    -0.556695716706E+03    0.15437E-03   -0.43973E-04  9146   0.610E-02    0.624E-02
RMM:   8    -0.556695649866E+03    0.66841E-04   -0.11598E-04  9513   0.290E-02    0.216E-02
RMM:   9    -0.556695650944E+03   -0.10782E-05   -0.54094E-05  9058   0.159E-02    0.187E-02
RMM:  10    -0.556695648899E+03    0.20453E-05   -0.18290E-05  7971   0.970E-03    0.946E-03
RMM:  11    -0.556695649053E+03   -0.15395E-06   -0.58496E-06  6247   0.608E-03
  13 F= -.55669565E+03 E0= -.55668665E+03  d E =-.548263E-02
 curvature: -15.81 expect dE=-0.384E-01 dE for cont linesearch -0.553E-03
 ZBRENT: increasing intervall
 opt :  41.3459  next Energy=  -556.695706 (dE=-0.554E-02)
 bond charge predicted
       N       E                     dE             d eps       ncg     rms          rms(c)
DAV:   1    -0.556689946635E+03    0.57023E-02   -0.42516E+00  8096   0.436E+00    0.566E-01
RMM:   2    -0.556698483407E+03   -0.85368E-02   -0.84259E-02  9095   0.102E+00    0.679E-01
RMM:   3    -0.556700182321E+03   -0.16989E-02   -0.23029E-02  9753   0.482E-01    0.611E-01
RMM:   4    -0.556703598624E+03   -0.34163E-02   -0.10878E-02 10684   0.200E-01    0.651E-01
RMM:   5    -0.556697377260E+03    0.62214E-02   -0.73304E-03  9187   0.247E-01    0.362E-01
RMM:   6    -0.556697258225E+03    0.11903E-03   -0.57343E-03  9924   0.178E-01    0.270E-01
RMM:   7    -0.556696261135E+03    0.99709E-03   -0.18018E-03  8908   0.127E-01    0.112E-01
RMM:   8    -0.556696069940E+03    0.19120E-03   -0.53264E-04  9856   0.548E-02    0.448E-02
RMM:   9    -0.556696071278E+03   -0.13384E-05   -0.19461E-04  9627   0.314E-02    0.377E-02
RMM:  10    -0.556696062799E+03    0.84788E-05   -0.70321E-05 10046   0.181E-02    0.203E-02
RMM:  11    -0.556696063094E+03   -0.29529E-06   -0.25242E-05  8473   0.117E-02    0.182E-02
RMM:  12    -0.556696061178E+03    0.19162E-05   -0.97260E-06  6569   0.967E-03    0.111E-02
RMM:  13    -0.556696061028E+03    0.15013E-06   -0.64527E-06  6287   0.569E-03
  14 F= -.55669606E+03 E0= -.55668763E+03  d E =-.589461E-02
 curvature:  -1.62 expect dE=-0.146E-01 dE for cont linesearch -0.359E-04
 ZBRENT: bracketing found
 ZBRENT: interpolating
 opt :  31.7877  next Energy=  -556.696602 (dE=-0.644E-02)
 bond charge predicted
       N       E                     dE             d eps       ncg     rms          rms(c)
DAV:   1    -0.556695343406E+03    0.71777E-03   -0.84025E-01  8096   0.194E+00    0.251E-01
RMM:   2    -0.556697190134E+03   -0.18467E-02   -0.16905E-02  9022   0.460E-01    0.325E-01
RMM:   3    -0.556697244467E+03   -0.54333E-04   -0.44034E-03  9804   0.211E-01    0.254E-01
RMM:   4    -0.556698202387E+03   -0.95792E-03   -0.22783E-03 10680   0.912E-02    0.312E-01
RMM:   5    -0.556696758039E+03    0.14443E-02   -0.14532E-03  9095   0.112E-01    0.148E-01
RMM:   6    -0.556696815007E+03   -0.56968E-04   -0.11833E-03  9915   0.804E-02    0.125E-01
RMM:   7    -0.556696593438E+03    0.22157E-03   -0.36313E-04  8923   0.572E-02    0.495E-02
RMM:   8    -0.556696560123E+03    0.33315E-04   -0.11862E-04  9916   0.245E-02    0.222E-02
RMM:   9    -0.556696557855E+03    0.22681E-05   -0.34241E-05  8565   0.135E-02    0.146E-02
RMM:  10    -0.556696556769E+03    0.10858E-05   -0.11611E-05  7494   0.728E-03    0.818E-03
RMM:  11    -0.556696557127E+03   -0.35783E-06   -0.41091E-06  5899   0.645E-03
  15 F= -.55669656E+03 E0= -.55668788E+03  d E =-.639071E-02
 curvature: -24.39 expect dE=-0.138E+00 dE for cont linesearch -0.366E-05
 trial: gam=13.69135 g(F)=  0.567E-02 g(S)=  0.000E+00 ort = 0.930E-05 (trialstep = 0.358E-01)
 search vector abs. value=  0.114E+00
 bond charge predicted
       N       E                     dE             d eps       ncg     rms          rms(c)
DAV:   1    -0.556696756611E+03   -0.19984E-03   -0.23054E-03  8656   0.103E-01    0.141E-02
RMM:   2    -0.556696763005E+03   -0.63933E-05   -0.55202E-05  8939   0.281E-02    0.174E-02
RMM:   3    -0.556696765178E+03   -0.21735E-05   -0.14729E-05  8040   0.127E-02    0.180E-02
RMM:   4    -0.556696763266E+03    0.19121E-05   -0.58261E-06  6348   0.660E-03    0.134E-02
RMM:   5    -0.556696761202E+03    0.20644E-05   -0.30463E-06  5532   0.753E-03    0.731E-03
RMM:   6    -0.556696761430E+03   -0.22857E-06   -0.24218E-06  5474   0.581E-03
  16 F= -.55669676E+03 E0= -.55668810E+03  d E =-.204303E-03
 ZBRENT: can't locate minimum, use default step
 trial-energy change:   -0.000204  1 .order   -0.000205   -0.000207   -0.000203
 step:   0.1432(harm=  1.5904)  dis= 0.00813  next Energy=  -556.701167 (dE=-0.461E-02)
 bond charge predicted
       N       E                     dE             d eps       ncg     rms          rms(c)
DAV:   1    -0.556697317008E+03   -0.55581E-03   -0.20885E-02  8264   0.306E-01    0.406E-02
RMM:   2    -0.556697356561E+03   -0.39552E-04   -0.44146E-04  8298   0.841E-02    0.408E-02
RMM:   3    -0.556697388404E+03   -0.31843E-04   -0.13908E-04  9855   0.364E-02    0.542E-02
RMM:   4    -0.556697375757E+03    0.12647E-04   -0.45444E-05  9591   0.170E-02    0.335E-02
RMM:   5    -0.556697363686E+03    0.12071E-04   -0.39727E-05  9579   0.136E-02    0.271E-02
RMM:   6    -0.556697366380E+03   -0.26942E-05   -0.26562E-05  7945   0.158E-02    0.292E-02
RMM:   7    -0.556697358098E+03    0.82818E-05   -0.13389E-05  6990   0.121E-02    0.140E-02
RMM:   8    -0.556697355463E+03    0.26346E-05   -0.35669E-06  5683   0.688E-03    0.559E-03
RMM:   9    -0.556697355363E+03    0.10019E-06   -0.14179E-06  5161   0.413E-03
  17 F= -.55669736E+03 E0= -.55668872E+03  d E =-.798236E-03
 curvature:  -2.09 expect dE=-0.106E-01 dE for cont linesearch -0.533E-03
 ZBRENT: increasing intervall
 opt :   0.3579  next Energy=  -556.698456 (dE=-0.190E-02)
 bond charge predicted
       N       E                     dE             d eps       ncg     rms          rms(c)
DAV:   1    -0.556698333594E+03   -0.97813E-03   -0.83975E-02  8112   0.612E-01    0.798E-02
RMM:   2    -0.556698516906E+03   -0.18331E-03   -0.16854E-03  8941   0.148E-01    0.103E-01
RMM:   3    -0.556698523600E+03   -0.66944E-05   -0.46377E-04  9718   0.694E-02    0.806E-02
RMM:   4    -0.556698608489E+03   -0.84888E-04   -0.20191E-04 10685   0.262E-02    0.875E-02
RMM:   5    -0.556698485321E+03    0.12317E-03   -0.12443E-04  9426   0.305E-02    0.511E-02
RMM:   6    -0.556698485952E+03   -0.63125E-06   -0.11137E-04  9614   0.272E-02    0.426E-02
RMM:   7    -0.556698463097E+03    0.22856E-04   -0.35763E-05  8367   0.191E-02    0.159E-02
RMM:   8    -0.556698459710E+03    0.33867E-05   -0.99701E-06  6877   0.828E-03    0.767E-03
RMM:   9    -0.556698459403E+03    0.30715E-06   -0.30952E-06  5616   0.538E-03
  18 F= -.55669846E+03 E0= -.55668990E+03  d E =-.190228E-02
 curvature:  -4.31 expect dE=-0.181E-01 dE for cont linesearch -0.882E-03
 ZBRENT: increasing intervall
 opt :   0.7874  next Energy=  -556.700291 (dE=-0.373E-02)
 bond charge predicted
       N       E                     dE             d eps       ncg     rms          rms(c)
DAV:   1    -0.556699786206E+03   -0.13265E-02   -0.33561E-01  8096   0.122E+00    0.159E-01
RMM:   2    -0.556700543042E+03   -0.75684E-03   -0.67686E-03  8943   0.297E-01    0.211E-01
RMM:   3    -0.556700530032E+03    0.13010E-04   -0.18286E-03  9720   0.138E-01    0.156E-01
RMM:   4    -0.556700908612E+03   -0.37858E-03   -0.80777E-04 10756   0.522E-02    0.182E-01
RMM:   5    -0.556700377185E+03    0.53143E-03   -0.51382E-04  9328   0.634E-02    0.988E-02
RMM:   6    -0.556700402131E+03   -0.24946E-04   -0.45750E-04  9708   0.552E-02    0.880E-02
RMM:   7    -0.556700296354E+03    0.10578E-03   -0.14303E-04  8610   0.386E-02    0.290E-02
RMM:   8    -0.556700287225E+03    0.91295E-05   -0.46345E-05  9169   0.161E-02    0.152E-02
RMM:   9    -0.556700285847E+03    0.13772E-05   -0.13512E-05  7245   0.868E-03    0.893E-03
RMM:  10    -0.556700285701E+03    0.14662E-06   -0.44525E-06  6027   0.541E-03
  19 F= -.55670029E+03 E0= -.55669186E+03  d E =-.372857E-02
 curvature:  -8.96 expect dE=-0.243E-01 dE for cont linesearch -0.984E-03
 ZBRENT: increasing intervall
 opt :   1.6464  next Energy=  -556.702218 (dE=-0.566E-02)
 bond charge predicted
       N       E                     dE             d eps       ncg     rms          rms(c)
DAV:   1    -0.556700071361E+03    0.21449E-03   -0.13383E+00  8096   0.244E+00    0.313E-01
RMM:   2    -0.556703229433E+03   -0.31581E-02   -0.27306E-02  8963   0.594E-01    0.437E-01
RMM:   3    -0.556702840251E+03    0.38918E-03   -0.71296E-03  9684   0.273E-01    0.287E-01
RMM:   4    -0.556704640984E+03   -0.18007E-02   -0.32727E-03 10805   0.102E-01    0.367E-01
RMM:   5    -0.556702407687E+03    0.22333E-02   -0.20789E-03  9364   0.127E-01    0.200E-01
RMM:   6    -0.556702486322E+03   -0.78635E-04   -0.18190E-03  9627   0.113E-01    0.173E-01
RMM:   7    -0.556702071202E+03    0.41512E-03   -0.53039E-04  8594   0.746E-02    0.571E-02
RMM:   8    -0.556702039959E+03    0.31243E-04   -0.17829E-04  9439   0.326E-02    0.313E-02
RMM:   9    -0.556702034555E+03    0.54044E-05   -0.60233E-05  9535   0.168E-02    0.175E-02
RMM:  10    -0.556702034047E+03    0.50793E-06   -0.21731E-05  8577   0.906E-03    0.117E-02
RMM:  11    -0.556702034074E+03   -0.27379E-07   -0.73249E-06  6326   0.822E-03
  20 F= -.55670203E+03 E0= -.55669387E+03  d E =-.547695E-02
 curvature: -17.60 expect dE=-0.193E-01 dE for cont linesearch -0.636E-05
 trial: gam=-0.09484 g(F)=  0.109E-02 g(S)=  0.000E+00 ort = 0.203E-03 (trialstep = 0.358E+00)
 search vector abs. value=  0.208E-02
 bond charge predicted
       N       E                     dE             d eps       ncg     rms          rms(c)
DAV:   1    -0.556702367687E+03   -0.33364E-03   -0.44402E-03  9216   0.145E-01    0.220E-02
RMM:   2    -0.556702383216E+03   -0.15529E-04   -0.12972E-04  8559   0.428E-02    0.343E-02
RMM:   3    -0.556702377329E+03    0.58874E-05   -0.31751E-05  9296   0.181E-02    0.217E-02
RMM:   4    -0.556702379367E+03   -0.20385E-05   -0.16495E-05  8453   0.931E-03    0.247E-02
RMM:   5    -0.556702372957E+03    0.64097E-05   -0.11792E-05  6880   0.110E-02    0.149E-02
RMM:   6    -0.556702373808E+03   -0.85044E-06   -0.87752E-06  6545   0.957E-03
  21 F= -.55670237E+03 E0= -.55669419E+03  d E =-.339734E-03
 ZBRENT: can't locate minimum, use default step
 trial-energy change:   -0.000340  1 .order   -0.000339   -0.000385   -0.000293
 step:   1.4317(harm=  1.5060)  dis= 0.00687  next Energy=  -556.702844 (dE=-0.810E-03)
 bond charge predicted
       N       E                     dE             d eps       ncg     rms          rms(c)
DAV:   1    -0.556702820823E+03   -0.44787E-03   -0.39995E-02  8192   0.431E-01    0.653E-02
RMM:   2    -0.556702945298E+03   -0.12448E-03   -0.11566E-03  8368   0.128E-01    0.105E-01
RMM:   3    -0.556702891485E+03    0.53813E-04   -0.28489E-04  9659   0.565E-02    0.607E-02
RMM:   4    -0.556702945330E+03   -0.53846E-04   -0.17511E-04 10830   0.264E-02    0.770E-02
RMM:   5    -0.556702864869E+03    0.80461E-04   -0.11305E-04  9176   0.311E-02    0.458E-02
RMM:   6    -0.556702864379E+03    0.48960E-06   -0.81888E-05  9628   0.230E-02    0.377E-02
RMM:   7    -0.556702852010E+03    0.12370E-04   -0.37887E-05  8356   0.192E-02    0.234E-02
RMM:   8    -0.556702843744E+03    0.82652E-05   -0.95914E-06  7017   0.102E-02    0.741E-03
RMM:   9    -0.556702843788E+03   -0.43978E-07   -0.38236E-06  5799   0.582E-03
  22 F= -.55670284E+03 E0= -.55669462E+03  d E =-.809714E-03
 curvature:  -1.45 expect dE=-0.198E-03 dE for cont linesearch -0.313E-05
 ZBRENT: extrapolating
 opt :   1.5272  next Energy=  -556.702847 (dE=-0.813E-03)
 bond charge predicted
       N       E                     dE             d eps       ncg     rms          rms(c)
DAV:   1    -0.556702846750E+03   -0.30053E-05   -0.31916E-04  9712   0.397E-02    0.645E-03
RMM:   2    -0.556702849414E+03   -0.26639E-05   -0.13795E-05  8027   0.132E-02    0.147E-02
RMM:   3    -0.556702847325E+03    0.20889E-05   -0.27017E-06  5429   0.666E-03    0.520E-03
RMM:   4    -0.556702847906E+03   -0.58169E-06   -0.13528E-06  4866   0.413E-03    0.797E-03
RMM:   5    -0.556702847335E+03    0.57154E-06   -0.11159E-06  4702   0.438E-03
  23 F= -.55670285E+03 E0= -.55669462E+03  d E =-.813261E-03
 curvature:  -1.49 expect dE=-0.213E-03 dE for cont linesearch -0.184E-07
 trial: gam= 0.08381 g(F)=  0.143E-03 g(S)=  0.000E+00 ort = 0.508E-05 (trialstep = 0.592E+00)
 search vector abs. value=  0.159E-03
 bond charge predicted
       N       E                     dE             d eps       ncg     rms          rms(c)
DAV:   1    -0.556702925087E+03   -0.77181E-04   -0.89112E-04  8456   0.642E-02    0.868E-03
RMM:   2    -0.556702932954E+03   -0.78673E-05   -0.32039E-05  8234   0.212E-02    0.260E-02
RMM:   3    -0.556702926343E+03    0.66110E-05   -0.59336E-06  6302   0.971E-03    0.595E-03
RMM:   4    -0.556702927211E+03   -0.86779E-06   -0.16668E-06  5139   0.430E-03    0.897E-03
RMM:   5    -0.556702926570E+03    0.64129E-06   -0.10391E-06  4751   0.449E-03
  24 F= -.55670293E+03 E0= -.55669469E+03  d E =-.792350E-04
 ZBRENT: can't locate minimum, use default step
 trial-energy change:   -0.000079  1 .order   -0.000079   -0.000085   -0.000074
 step:   2.3671(harm=  4.4286)  dis= 0.00438  next Energy=  -556.703166 (dE=-0.319E-03)
 bond charge predicted
       N       E                     dE             d eps       ncg     rms          rms(c)
DAV:   1    -0.556703084564E+03   -0.15735E-03   -0.79959E-03  8096   0.191E-01    0.246E-02
RMM:   2    -0.556703132766E+03   -0.48203E-04   -0.23357E-04  8297   0.592E-02    0.619E-02
RMM:   3    -0.556703097767E+03    0.34999E-04   -0.48217E-05  9141   0.255E-02    0.183E-02
RMM:   4    -0.556703103175E+03   -0.54079E-05   -0.14138E-05  7881   0.883E-03    0.221E-02
RMM:   5    -0.556703101791E+03    0.13842E-05   -0.70093E-06  6353   0.878E-03    0.197E-02
RMM:   6    -0.556703104749E+03   -0.29587E-05   -0.15837E-05  7304   0.129E-02    0.250E-02
RMM:   7    -0.556703097515E+03    0.72341E-05   -0.45186E-06  5931   0.931E-03    0.291E-03
RMM:   8    -0.556703097557E+03   -0.41589E-07   -0.80874E-07  4906   0.275E-03
  25 F= -.55670310E+03 E0= -.55669484E+03  d E =-.250222E-03
 curvature:  -1.74 expect dE=-0.130E-03 dE for cont linesearch -0.523E-04
 ZBRENT: increasing intervall
 opt :   5.9177  next Energy=  -556.703146 (dE=-0.298E-03)
 bond charge predicted
       N       E                     dE             d eps       ncg     rms          rms(c)
DAV:   1    -0.556703092306E+03    0.52090E-05   -0.32027E-02  8096   0.379E-01    0.475E-02
RMM:   2    -0.556703282683E+03   -0.19038E-03   -0.87127E-04  8398   0.109E-01    0.123E-01
RMM:   3    -0.556703144603E+03    0.13808E-03   -0.17370E-04  9360   0.475E-02    0.360E-02
RMM:   4    -0.556703177605E+03   -0.33003E-04   -0.69274E-05 10396   0.161E-02    0.512E-02
RMM:   5    -0.556703151046E+03    0.26559E-04   -0.44072E-05  8734   0.190E-02    0.364E-02
RMM:   6    -0.556703153286E+03   -0.22400E-05   -0.48760E-05  8984   0.206E-02    0.306E-02
RMM:   7    -0.556703142032E+03    0.11254E-04   -0.16385E-05  7672   0.140E-02    0.145E-02
RMM:   8    -0.556703139028E+03    0.30047E-05   -0.38169E-06  5819   0.693E-03    0.488E-03
RMM:   9    -0.556703138947E+03    0.80150E-07   -0.15126E-06  5326   0.365E-03
  26 F= -.55670314E+03 E0= -.55669484E+03  d E =-.291613E-03
 curvature:  -1.60 expect dE=-0.448E-03 dE for cont linesearch -0.195E-04
 ZBRENT: bracketing found
 ZBRENT: interpolating
 opt :   4.5364  next Energy=  -556.703169 (dE=-0.322E-03)
 bond charge predicted
       N       E                     dE             d eps       ncg     rms          rms(c)
DAV:   1    -0.556703162623E+03   -0.23596E-04   -0.48406E-03  8112   0.148E-01    0.178E-02
RMM:   2    -0.556703186574E+03   -0.23951E-04   -0.12433E-04  8407   0.416E-02    0.427E-02
RMM:   3    -0.556703170656E+03    0.15919E-04   -0.23808E-05  8561   0.175E-02    0.137E-02
RMM:   4    -0.556703175235E+03   -0.45793E-05   -0.80622E-06  6843   0.647E-03    0.191E-02
RMM:   5    -0.556703171866E+03    0.33692E-05   -0.55397E-06  5976   0.864E-03    0.143E-02
RMM:   6    -0.556703172396E+03   -0.53043E-06   -0.66540E-06  6254   0.916E-03
  27 F= -.55670317E+03 E0= -.55669490E+03  d E =-.325061E-03
 curvature:  -2.49 expect dE=-0.390E-03 dE for cont linesearch -0.511E-10
 trial: gam= 1.09808 g(F)=  0.156E-03 g(S)=  0.000E+00 ort = 0.571E-07 (trialstep = 0.631E+00)
 search vector abs. value=  0.348E-03
 bond charge predicted
       N       E                     dE             d eps       ncg     rms          rms(c)
DAV:   1    -0.556703256320E+03   -0.84454E-04   -0.22390E-03  8208   0.102E-01    0.156E-02
RMM:   2    -0.556703276833E+03   -0.20514E-04   -0.94100E-05  8123   0.390E-02    0.421E-02
RMM:   3    -0.556703259357E+03    0.17477E-04   -0.19788E-05  8235   0.176E-02    0.118E-02
RMM:   4    -0.556703260172E+03   -0.81495E-06   -0.54750E-06  6218   0.621E-03    0.133E-02
RMM:   5    -0.556703259604E+03    0.56765E-06   -0.23408E-06  5349   0.610E-03
  28 F= -.55670326E+03 E0= -.55669497E+03  d E =-.872077E-04
 ZBRENT: can't locate minimum, use default step
 trial-energy change:   -0.000087  1 .order   -0.000088   -0.000099   -0.000078
 step:   2.5223(harm=  3.0133)  dis= 0.00815  next Energy=  -556.703408 (dE=-0.236E-03)
 bond charge predicted
       N       E                     dE             d eps       ncg     rms          rms(c)
DAV:   1    -0.556703382842E+03   -0.12267E-03   -0.20029E-02  8096   0.302E-01    0.459E-02
RMM:   2    -0.556703522354E+03   -0.13951E-03   -0.65055E-04  8247   0.101E-01    0.114E-01
RMM:   3    -0.556703401551E+03    0.12080E-03   -0.14674E-04  9185   0.452E-02    0.346E-02
RMM:   4    -0.556703425590E+03   -0.24040E-04   -0.62061E-05  9231   0.212E-02    0.517E-02
RMM:   5    -0.556703409935E+03    0.15655E-04   -0.37808E-05  8799   0.186E-02    0.336E-02
RMM:   6    -0.556703417285E+03   -0.73494E-05   -0.53391E-05 10170   0.156E-02    0.350E-02
RMM:   7    -0.556703395967E+03    0.21317E-04   -0.21088E-05  7717   0.149E-02    0.105E-02
RMM:   8    -0.556703394835E+03    0.11326E-05   -0.84494E-06  6676   0.636E-03    0.565E-03
RMM:   9    -0.556703394630E+03    0.20443E-06   -0.15064E-06  5128   0.450E-03
  29 F= -.55670339E+03 E0= -.55669510E+03  d E =-.222234E-03
 curvature:  -3.21 expect dE=-0.788E-04 dE for cont linesearch -0.411E-05
 trial: gam= 0.02657 g(F)=  0.245E-04 g(S)=  0.000E+00 ort = 0.211E-04 (trialstep = 0.101E+01)
 search vector abs. value=  0.259E-04
 reached required accuracy - stopping structural energy minimisation
 augmentation electrons   27.715469375892834     
 soft         electrons   239.36010064056603     
 augmentation electrons   27.715469375892834     
 soft         electrons   239.36010064056603     
 augmentation electrons   27.715469375892834     
 soft         electrons   239.36010064056603     
 augmentation electrons   27.715469375892834     
 soft         electrons   239.36010064056603     
 augmentation electrons   27.715469375892834     
 soft         electrons   239.36010064056603     
 augmentation electrons   27.715469375892834     
 soft         electrons   239.36010064056603     
 augmentation electrons   27.715469375892834     
 soft         electrons   239.36010064056603     
 augmentation electrons   27.715469375892834     
 soft         electrons   239.36010064056603     
 augmentation electrons   27.715469375892834     
 soft         electrons   239.36010064056603     
 augmentation electrons   27.715469375892834     
 soft         electrons   239.36010064056603     
 augmentation electrons   27.715469375892834     
 soft         electrons   239.36010064056603     
 augmentation electrons   27.715469375892834     
 soft         electrons   239.36010064056603     
 augmentation electrons   27.715469375892834     
 soft         electrons   239.36010064056603     
 augmentation electrons   27.715469375892834     
 soft         electrons   239.36010064056603     
 augmentation electrons   27.715469375892834     
 soft         electrons   239.36010064056603     
 augmentation electrons   27.715469375892834     
 soft         electrons   239.36010064056603     
 augmentation electrons   27.715469375892834     
 soft         electrons   239.36010064056603     
 augmentation electrons   27.715469375892834     
 soft         electrons   239.36010064056603     
 augmentation electrons   27.715469375892834     
 soft         electrons   239.36010064056603     
 augmentation electrons   27.715469375892834     
 soft         electrons   239.36010064056603     
 augmentation electrons   27.715469375892834     
 soft         electrons   239.36010064056603     
 augmentation electrons   27.715469375892834     
 soft         electrons   239.36010064056603     
 augmentation electrons   27.715469375892834     
 soft         electrons   239.36010064056603     
 augmentation electrons   27.715469375892834     
 soft         electrons   239.36010064056603     
 augmentation electrons   27.715469375892834     
 soft         electrons   239.36010064056603     
 augmentation electrons   27.715469375892834     
 soft         electrons   239.36010064056603     
 augmentation electrons   27.715469375892834     
 soft         electrons   239.36010064056603     
 augmentation electrons   27.715469375892834     
 soft         electrons   239.36010064056603     
 augmentation electrons   27.715469375892834     
 soft         electrons   239.36010064056603     
 augmentation electrons   27.715469375892834     
 soft         electrons   239.36010064056603     
 augmentation electrons   27.715469375892834     
 soft         electrons   239.36010064056603     
 augmentation electrons   27.715469375892834     
 soft         electrons   239.36010064056603     
 augmentation electrons   27.715469375892834     
 soft         electrons   239.36010064056603     
 augmentation electrons   27.715469375892834     
 soft         electrons   239.36010064056603     
 augmentation electrons   27.715469375892834     
 soft         electrons   239.36010064056603     
 augmentation electrons   27.715469375892834     
 soft         electrons   239.36010064056603     
 augmentation electrons   27.715469375892834     
 soft         electrons   239.36010064056603     
 augmentation electrons   27.715469375892834     
 soft         electrons   239.36010064056603     
 augmentation electrons   27.715469375892834     
 soft         electrons   239.36010064056603     
 augmentation electrons   27.715469375892834     
 soft         electrons   239.36010064056603     
 augmentation electrons   27.715469375892834     
 soft         electrons   239.36010064056603     
 augmentation electrons   27.715469375892834     
 soft         electrons   239.36010064056603     
 augmentation electrons   27.715469375892834     
 soft         electrons   239.36010064056603     
 augmentation electrons   27.715469375892834     
 soft         electrons   239.36010064056603     
 augmentation electrons   27.715469375892834     
 soft         electrons   239.36010064056603     
 augmentation electrons   27.715469375892834     
 soft         electrons   239.36010064056603     
 augmentation electrons   27.715469375892834     
 soft         electrons   239.36010064056603     
 augmentation electrons   27.715469375892834     
 soft         electrons   239.36010064056603     
 augmentation electrons   27.715469375892834     
 augmentation electrons   27.715469375892834     
 soft         electrons   239.36010064056603     
 augmentation electrons   27.715469375892834     
 soft         electrons   239.36010064056603     
 augmentation electrons   27.715469375892834     
 soft         electrons   239.36010064056603     
 augmentation electrons   27.715469375892834     
 soft         electrons   239.36010064056603     
 augmentation electrons   27.715469375892834     
 soft         electrons   239.36010064056603     
 augmentation electrons   27.715469375892834     
 soft         electrons   239.36010064056603     
 augmentation electrons   27.715469375892834     
 soft         electrons   239.36010064056603     
 augmentation electrons   27.715469375892834     
 soft         electrons   239.36010064056603     
 augmentation electrons   27.715469375892834     
 soft         electrons   239.36010064056603     
 augmentation electrons   27.715469375892834     
 soft         electrons   239.36010064056603     
 augmentation electrons   27.715469375892834     
 soft         electrons   239.36010064056603     
 augmentation electrons   27.715469375892834     
 soft         electrons   239.36010064056603     
 augmentation electrons   27.715469375892834     
 soft         electrons   239.36010064056603     
 augmentation electrons   27.715469375892834     
 soft         electrons   239.36010064056603     
 augmentation electrons   27.715469375892834     
 soft         electrons   239.36010064056603     
 augmentation electrons   27.715469375892834     
 soft         electrons   239.36010064056603     
 augmentation electrons   27.715469375892834     
 soft         electrons   239.36010064056603     
 augmentation electrons   27.715469375892834     
 soft         electrons   239.36010064056603     
 augmentation electrons   27.715469375892834     
 soft         electrons   239.36010064056603     
 augmentation electrons   27.715469375892834     
 soft         electrons   239.36010064056603     
 augmentation electrons   27.715469375892834     
 soft         electrons   239.36010064056603     
 augmentation electrons   27.715469375892834     
 soft         electrons   239.36010064056603     
 augmentation electrons   27.715469375892834     
 soft         electrons   239.36010064056603     
 soft         electrons   239.36010064056603     
 total        electrons   267.07557001645887     
 total        electrons   267.07557001645887     
 total        electrons   267.07557001645887     
 total        electrons   267.07557001645887     
 total        electrons   267.07557001645887     
 total        electrons   267.07557001645887     
 total        electrons   267.07557001645887     
 total        electrons   267.07557001645887     
 total        electrons   267.07557001645887     
 total        electrons   267.07557001645887     
 total        electrons   267.07557001645887     
 total        electrons   267.07557001645887     
 total        electrons   267.07557001645887     
 total        electrons   267.07557001645887     
 total        electrons   267.07557001645887     
 total        electrons   267.07557001645887     
 total        electrons   267.07557001645887     
 total        electrons   267.07557001645887     
 total        electrons   267.07557001645887     
 total        electrons   267.07557001645887     
 total        electrons   267.07557001645887     
 total        electrons   267.07557001645887     
 total        electrons   267.07557001645887     
 total        electrons   267.07557001645887     
 total        electrons   267.07557001645887     
 total        electrons   267.07557001645887     
 total        electrons   267.07557001645887     
 total        electrons   267.07557001645887     
 total        electrons   267.07557001645887     
 total        electrons   267.07557001645887     
 total        electrons   267.07557001645887     
 total        electrons   267.07557001645887     
 total        electrons   267.07557001645887     
 total        electrons   267.07557001645887     
 total        electrons   267.07557001645887     
 total        electrons   267.07557001645887     
 total        electrons   267.07557001645887     
 total        electrons   267.07557001645887     
 total        electrons   267.07557001645887     
 total        electrons   267.07557001645887     
 total        electrons   267.07557001645887     
 total        electrons   267.07557001645887     
 total        electrons   267.07557001645887     
 total        electrons   267.07557001645887     
 total        electrons   267.07557001645887     
 total        electrons   267.07557001645887     
 total        electrons   267.07557001645887     
 total        electrons   267.07557001645887     
 total        electrons   267.07557001645887     
 total        electrons   267.07557001645887     
 total        electrons   267.07557001645887     
 total        electrons   267.07557001645887     
 total        electrons   267.07557001645887     
 total        electrons   267.07557001645887     
 total        electrons   267.07557001645887     
 total        electrons   267.07557001645887     
 total        electrons   267.07557001645887     
 total        electrons   267.07557001645887     
 total        electrons   267.07557001645887     
 total        electrons   267.07557001645887     
 total        electrons   267.07557001645887     
 total        electrons   267.07557001645887     
 total        electrons   267.07557001645887     
 total        electrons   267.07557001645887     
 total        electrons   267.07557001645887     
 total        electrons   267.07557001645887     
 total        electrons   267.07557001645887     
 total        electrons   267.07557001645887     
 total        electrons   267.07557001645887     
 total        electrons   267.07557001645887     
 total        electrons   267.07557001645887     
 total        electrons   267.07557001645887     
Note: The following floating-point exceptions are signalling: IEEE_OVERFLOW_FLAG
Note: The following floating-point exceptions are signalling: IEEE_OVERFLOW_FLAG
Note: The following floating-point exceptions are signalling: IEEE_INVALID_FLAG IEEE_OVERFLOW_FLAG
Note: The following floating-point exceptions are signalling: IEEE_OVERFLOW_FLAG
Note: The following floating-point exceptions are signalling: IEEE_OVERFLOW_FLAG
Note: The following floating-point exceptions are signalling: IEEE_OVERFLOW_FLAG
Note: The following floating-point exceptions are signalling: IEEE_OVERFLOW_FLAG
Note: The following floating-point exceptions are signalling: IEEE_OVERFLOW_FLAG
Note: The following floating-point exceptions are signalling: IEEE_OVERFLOW_FLAG
Note: The following floating-point exceptions are signalling: IEEE_OVERFLOW_FLAG
Note: The following floating-point exceptions are signalling: IEEE_OVERFLOW_FLAG
Note: The following floating-point exceptions are signalling: IEEE_OVERFLOW_FLAG
Note: The following floating-point exceptions are signalling: IEEE_OVERFLOW_FLAG
Note: The following floating-point exceptions are signalling: IEEE_OVERFLOW_FLAG
Note: The following floating-point exceptions are signalling: IEEE_OVERFLOW_FLAG
Note: The following floating-point exceptions are signalling: IEEE_OVERFLOW_FLAG
Note: The following floating-point exceptions are signalling: IEEE_OVERFLOW_FLAG
Note: The following floating-point exceptions are signalling: IEEE_OVERFLOW_FLAG
Note: The following floating-point exceptions are signalling: IEEE_OVERFLOW_FLAG
Note: The following floating-point exceptions are signalling: IEEE_OVERFLOW_FLAG
Note: The following floating-point exceptions are signalling: IEEE_OVERFLOW_FLAG
Note: The following floating-point exceptions are signalling: IEEE_OVERFLOW_FLAG
Note: The following floating-point exceptions are signalling: IEEE_OVERFLOW_FLAG
Note: The following floating-point exceptions are signalling: IEEE_OVERFLOW_FLAG
Note: The following floating-point exceptions are signalling: IEEE_OVERFLOW_FLAG
Note: The following floating-point exceptions are signalling: IEEE_OVERFLOW_FLAG
Note: The following floating-point exceptions are signalling: IEEE_OVERFLOW_FLAG
Note: The following floating-point exceptions are signalling: IEEE_OVERFLOW_FLAG
Note: The following floating-point exceptions are signalling: IEEE_OVERFLOW_FLAG
Note: The following floating-point exceptions are signalling: IEEE_OVERFLOW_FLAG
Note: The following floating-point exceptions are signalling: IEEE_OVERFLOW_FLAG
Note: The following floating-point exceptions are signalling: IEEE_OVERFLOW_FLAG
Note: The following floating-point exceptions are signalling: IEEE_OVERFLOW_FLAG
Note: The following floating-point exceptions are signalling: IEEE_OVERFLOW_FLAG
Note: The following floating-point exceptions are signalling: IEEE_OVERFLOW_FLAG
Note: The following floating-point exceptions are signalling: IEEE_OVERFLOW_FLAG
Note: The following floating-point exceptions are signalling: IEEE_OVERFLOW_FLAG
Note: The following floating-point exceptions are signalling: IEEE_OVERFLOW_FLAG
Note: The following floating-point exceptions are signalling: IEEE_OVERFLOW_FLAG
Note: The following floating-point exceptions are signalling: IEEE_OVERFLOW_FLAG
Note: The following floating-point exceptions are signalling: IEEE_INVALID_FLAG IEEE_OVERFLOW_FLAG
Note: The following floating-point exceptions are signalling: IEEE_OVERFLOW_FLAG
Note: The following floating-point exceptions are signalling: IEEE_OVERFLOW_FLAG
Note: The following floating-point exceptions are signalling: IEEE_OVERFLOW_FLAG
Note: The following floating-point exceptions are signalling: IEEE_OVERFLOW_FLAG
Note: The following floating-point exceptions are signalling: IEEE_OVERFLOW_FLAG
Note: The following floating-point exceptions are signalling: IEEE_OVERFLOW_FLAG
Note: The following floating-point exceptions are signalling: IEEE_OVERFLOW_FLAG
Note: The following floating-point exceptions are signalling: IEEE_OVERFLOW_FLAG
Note: The following floating-point exceptions are signalling: IEEE_OVERFLOW_FLAG
Note: The following floating-point exceptions are signalling: IEEE_OVERFLOW_FLAG
Note: The following floating-point exceptions are signalling: IEEE_OVERFLOW_FLAG
Note: The following floating-point exceptions are signalling: IEEE_OVERFLOW_FLAG
Note: The following floating-point exceptions are signalling: IEEE_OVERFLOW_FLAG
Note: The following floating-point exceptions are signalling: IEEE_OVERFLOW_FLAG
Note: The following floating-point exceptions are signalling: IEEE_OVERFLOW_FLAG
Note: The following floating-point exceptions are signalling: IEEE_OVERFLOW_FLAG
Note: The following floating-point exceptions are signalling: IEEE_OVERFLOW_FLAG
Note: The following floating-point exceptions are signalling: IEEE_OVERFLOW_FLAG
Note: The following floating-point exceptions are signalling: IEEE_OVERFLOW_FLAG
Note: The following floating-point exceptions are signalling: IEEE_OVERFLOW_FLAG
Note: The following floating-point exceptions are signalling: IEEE_OVERFLOW_FLAG
Note: The following floating-point exceptions are signalling: IEEE_OVERFLOW_FLAG
Note: The following floating-point exceptions are signalling: IEEE_OVERFLOW_FLAG
Note: The following floating-point exceptions are signalling: IEEE_OVERFLOW_FLAG
Note: The following floating-point exceptions are signalling: IEEE_OVERFLOW_FLAG
Note: The following floating-point exceptions are signalling: IEEE_OVERFLOW_FLAG
Note: The following floating-point exceptions are signalling: IEEE_OVERFLOW_FLAG
Note: The following floating-point exceptions are signalling: IEEE_OVERFLOW_FLAG
Note: The following floating-point exceptions are signalling: IEEE_OVERFLOW_FLAG
Note: The following floating-point exceptions are signalling: IEEE_OVERFLOW_FLAG
Note: The following floating-point exceptions are signalling: IEEE_OVERFLOW_FLAG
