   55   55   85    1
  0.1346139E+02  0.6042588E-09  0.6042559E-09  0.2341357E-08  0.5000000E-15
   1.0000000000000000E-004
  CAR 
 Name                                    
    197     41    126

  0.3742002E-15  0.3742002E-15  0.1262379E-14  0.1234568E-01
    1      -11.758880   1.000000
    2      -11.181645   1.000000
    3      -10.383858   1.000000
    4       -9.166932   1.000000
    5       -8.921169   1.000000
    6       -8.461980   1.000000
    7       -8.295219   1.000000
    8       -8.187652   1.000000
    9       -7.989224   1.000000
   10       -7.917250   1.000000
   11       -7.911475   1.000000
   12       -7.831234   1.000000
   13       -7.818938   1.000000
   14       -7.739103   1.000000
   15       -7.546117   1.000000
   16       -7.502294   1.000000
   17       -7.416643   1.000000
   18       -7.287579   1.000000
   19       -7.202199   1.000000
   20       -6.889266   1.000000
   21       -6.859264   1.000000
   22       -6.487505   1.000000
   23       -6.296158   1.000000
   24       -6.109532   1.000000
   25       -6.051721   1.000000
   26       -6.008012   1.000000
   27       -5.985953   1.000000
   28       -5.765277   1.000000
   29       -5.588112   1.000000
   30       -5.439965   1.000000
   31       -4.941361   1.000000
   32       -4.901330   1.000000
   33       -4.757992   1.000000
   34       -4.750614   1.000000
   35       -4.673927   1.000000
   36       -4.325990   1.000000
   37       -4.220097   1.000000
   38       -3.444206   1.000000
   39       -3.408604   1.000000
   40       -3.069939   1.000000
   41       -3.058572   1.000000
   42       -2.973282   1.000000
   43       -2.926555   1.000000
   44       -2.690088   1.000000
   45       -2.583947   1.000000
   46       -2.574170   1.000000
   47       -2.210633   1.000000
   48       -2.195157   1.000000
   49       -2.168842   1.000000
   50       -2.068859   1.000000
   51       -1.959356   1.000000
   52       -1.907855   1.000000
   53       -1.875088   1.000000
   54       -1.795171   1.000000
   55       -1.672468   1.000000
   56       -1.651003   1.000000
   57       -1.628131   1.000000
   58       -1.601045   1.000000
   59       -1.516959   1.000000
   60       -1.446920   1.000000
   61       -1.405830   1.000000
   62       -1.397512   1.000000
   63       -1.222698   1.000000
   64       -1.137375   1.000000
   65       -1.064074   1.000000
   66       -1.021200   1.000000
   67       -0.973956   1.000000
   68       -0.888547   1.000000
   69       -0.776453   1.000000
   70       -0.749854   1.000000
   71       -0.609272   1.000000
   72       -0.460158   1.000000
   73       -0.445253   1.000000
   74       -0.410991   1.000000
   75       -0.401396   1.000000
   76       -0.371767   1.000000
   77       -0.348170   1.000000
   78       -0.260708   1.000000
   79       -0.015301   1.000000
   80        0.004146   1.000000
   81        0.317594   1.000000
   82        0.469081   1.000000
   83        0.678669   1.000000
   84        0.963158   1.000000
   85        1.062811   1.000000
   86        1.105820   1.000000
   87        1.211893   1.000000
   88        1.253522   1.000000
   89        1.359128   1.000000
   90        1.387223   1.000000
   91        1.408297   1.000000
   92        1.417763   1.000000
   93        1.545595   1.000001
   94        1.613682   1.000011
   95        1.722916   1.000252
   96        1.725799   1.000272
   97        1.986724   1.027805
   98        2.055322   1.034599
   99        2.536481  -0.035346
  100        2.604295  -0.023468
  101        2.628106  -0.018099
  102        2.820769  -0.000515
  103        2.833352  -0.000377
  104        3.043789  -0.000001
  105        3.105732  -0.000000
  106        3.114696  -0.000000
  107        3.135682  -0.000000
  108        3.288365  -0.000000
  109        3.290423  -0.000000
  110        3.364443  -0.000000
  111        3.395226  -0.000000
  112        3.463745  -0.000000
  113        3.483933  -0.000000
  114        3.547872  -0.000000
  115        3.554195  -0.000000
  116        3.616706  -0.000000
  117        3.650025  -0.000000
  118        3.650877  -0.000000
  119        3.720279  -0.000000
  120        3.785090  -0.000000
  121        3.790925  -0.000000
  122        3.858853  -0.000000
  123        3.914610  -0.000000
  124        3.965331  -0.000000
  125        3.983917  -0.000000
  126        4.072872  -0.000000

  0.1111111E+00  0.3867788E-15  0.1262378E-14  0.2469136E-01
    1      -11.701669   1.000000
    2      -11.129001   1.000000
    3      -10.341862   1.000000
    4       -9.132163   1.000000
    5       -8.887202   1.000000
    6       -8.515560   1.000000
    7       -8.504055   1.000000
    8       -8.410247   1.000000
    9       -8.323245   1.000000
   10       -8.116114   1.000000
   11       -8.094732   1.000000
   12       -7.983260   1.000000
   13       -7.959750   1.000000
   14       -7.817734   1.000000
   15       -7.343120   1.000000
   16       -7.260153   1.000000
   17       -7.126084   1.000000
   18       -7.028688   1.000000
   19       -6.963877   1.000000
   20       -6.889681   1.000000
   21       -6.696086   1.000000
   22       -6.377455   1.000000
   23       -6.312066   1.000000
   24       -6.166206   1.000000
   25       -6.040575   1.000000
   26       -6.028955   1.000000
   27       -5.874273   1.000000
   28       -5.767478   1.000000
   29       -5.618333   1.000000
   30       -5.385568   1.000000
   31       -4.911594   1.000000
   32       -4.738681   1.000000
   33       -4.707551   1.000000
   34       -4.545376   1.000000
   35       -4.501820   1.000000
   36       -4.187068   1.000000
   37       -4.096223   1.000000
   38       -3.438231   1.000000
   39       -3.411961   1.000000
   40       -3.075564   1.000000
   41       -3.061286   1.000000
   42       -3.012274   1.000000
   43       -2.970370   1.000000
   44       -2.750207   1.000000
   45       -2.641138   1.000000
   46       -2.608849   1.000000
   47       -2.497931   1.000000
   48       -2.287932   1.000000
   49       -2.138605   1.000000
   50       -2.085371   1.000000
   51       -2.001548   1.000000
   52       -1.948306   1.000000
   53       -1.882734   1.000000
   54       -1.848070   1.000000
   55       -1.715608   1.000000
   56       -1.662717   1.000000
   57       -1.628295   1.000000
   58       -1.602835   1.000000
   59       -1.568811   1.000000
   60       -1.490060   1.000000
   61       -1.430192   1.000000
   62       -1.389825   1.000000
   63       -1.316292   1.000000
   64       -1.191977   1.000000
   65       -1.120718   1.000000
   66       -1.058757   1.000000
   67       -1.033909   1.000000
   68       -0.862942   1.000000
   69       -0.837657   1.000000
   70       -0.773155   1.000000
   71       -0.625756   1.000000
   72       -0.545020   1.000000
   73       -0.513106   1.000000
   74       -0.461880   1.000000
   75       -0.401878   1.000000
   76       -0.305638   1.000000
   77       -0.234925   1.000000
   78       -0.175904   1.000000
   79       -0.048575   1.000000
   80        0.027095   1.000000
   81        0.170682   1.000000
   82        0.374209   1.000000
   83        0.412828   1.000000
   84        0.842828   1.000000
   85        0.906872   1.000000
   86        1.041479   1.000000
   87        1.170589   1.000000
   88        1.281233   1.000000
   89        1.302054   1.000000
   90        1.330148   1.000000
   91        1.355043   1.000000
   92        1.400286   1.000000
   93        1.539952   1.000001
   94        1.675185   1.000069
   95        1.744134   1.000432
   96        1.762421   1.000672
   97        2.236648   0.702079
   98        2.304439   0.422494
   99        2.486620  -0.025428
  100        2.608304  -0.022542
  101        2.656241  -0.012548
  102        2.707396  -0.005576
  103        2.785582  -0.001170
  104        2.906076  -0.000053
  105        3.067259  -0.000000
  106        3.257949  -0.000000
  107        3.267039  -0.000000
  108        3.294053  -0.000000
  109        3.319516  -0.000000
  110        3.368047  -0.000000
  111        3.402988  -0.000000
  112        3.459512  -0.000000
  113        3.479294  -0.000000
  114        3.521447  -0.000000
  115        3.529131  -0.000000
  116        3.577418  -0.000000
  117        3.619688  -0.000000
  118        3.633179  -0.000000
  119        3.715720  -0.000000
  120        3.753271  -0.000000
  121        3.780758  -0.000000
  122        3.833477  -0.000000
  123        3.881002  -0.000000
  124        3.901868  -0.000000
  125        3.998884  -0.000000
  126        4.027988  -0.000000

  0.2222222E+00  0.3825705E-15  0.1262378E-14  0.2469136E-01
    1      -11.532041   1.000000
    2      -10.973238   1.000000
    3      -10.218413   1.000000
    4       -9.185343   1.000000
    5       -9.029488   1.000000
    6       -8.896488   1.000000
    7       -8.794147   1.000000
    8       -8.713863   1.000000
    9       -8.397808   1.000000
   10       -8.356563   1.000000
   11       -8.269015   1.000000
   12       -8.224120   1.000000
   13       -8.129940   1.000000
   14       -7.924188   1.000000
   15       -7.329471   1.000000
   16       -7.170417   1.000000
   17       -6.868128   1.000000
   18       -6.843028   1.000000
   19       -6.715486   1.000000
   20       -6.666874   1.000000
   21       -6.374292   1.000000
   22       -6.236434   1.000000
   23       -6.133912   1.000000
   24       -6.018100   1.000000
   25       -5.940596   1.000000
   26       -5.859453   1.000000
   27       -5.780083   1.000000
   28       -5.623693   1.000000
   29       -5.283207   1.000000
   30       -5.207629   1.000000
   31       -4.766318   1.000000
   32       -4.525950   1.000000
   33       -4.508449   1.000000
   34       -4.252326   1.000000
   35       -4.043207   1.000000
   36       -3.972122   1.000000
   37       -3.654177   1.000000
   38       -3.472223   1.000000
   39       -3.434638   1.000000
   40       -3.302464   1.000000
   41       -3.198164   1.000000
   42       -3.177031   1.000000
   43       -3.013477   1.000000
   44       -2.987422   1.000000
   45       -2.833281   1.000000
   46       -2.744704   1.000000
   47       -2.619951   1.000000
   48       -2.443813   1.000000
   49       -2.234884   1.000000
   50       -2.182007   1.000000
   51       -2.098831   1.000000
   52       -1.982984   1.000000
   53       -1.940633   1.000000
   54       -1.919324   1.000000
   55       -1.797994   1.000000
   56       -1.774175   1.000000
   57       -1.735855   1.000000
   58       -1.691068   1.000000
   59       -1.637977   1.000000
   60       -1.591007   1.000000
   61       -1.567006   1.000000
   62       -1.458659   1.000000
   63       -1.414456   1.000000
   64       -1.304995   1.000000
   65       -1.248148   1.000000
   66       -1.191253   1.000000
   67       -1.109932   1.000000
   68       -1.026890   1.000000
   69       -0.996697   1.000000
   70       -0.819337   1.000000
   71       -0.783101   1.000000
   72       -0.650007   1.000000
   73       -0.578112   1.000000
   74       -0.554221   1.000000
   75       -0.460412   1.000000
   76       -0.363248   1.000000
   77       -0.218754   1.000000
   78       -0.129556   1.000000
   79       -0.085022   1.000000
   80        0.108082   1.000000
   81        0.178204   1.000000
   82        0.282106   1.000000
   83        0.401825   1.000000
   84        0.558452   1.000000
   85        0.652958   1.000000
   86        0.916958   1.000000
   87        1.047308   1.000000
   88        1.108123   1.000000
   89        1.231188   1.000000
   90        1.268284   1.000000
   91        1.285656   1.000000
   92        1.323372   1.000000
   93        1.606069   1.000008
   94        1.679068   1.000077
   95        1.750839   1.000509
   96        1.833591   1.003134
   97        2.268434   0.574160
   98        2.302055   0.432458
   99        2.458599  -0.004418
  100        2.569795  -0.031065
  101        2.701381  -0.006191
  102        2.862759  -0.000176
  103        2.969415  -0.000008
  104        2.992274  -0.000004
  105        3.118544  -0.000000
  106        3.132692  -0.000000
  107        3.155333  -0.000000
  108        3.207404  -0.000000
  109        3.229003  -0.000000
  110        3.290864  -0.000000
  111        3.308734  -0.000000
  112        3.407736  -0.000000
  113        3.451784  -0.000000
  114        3.478056  -0.000000
  115        3.503524  -0.000000
  116        3.539064  -0.000000
  117        3.622828  -0.000000
  118        3.676202  -0.000000
  119        3.721922  -0.000000
  120        3.750114  -0.000000
  121        3.770814  -0.000000
  122        3.812714  -0.000000
  123        3.853359  -0.000000
  124        3.912952  -0.000000
  125        3.924507  -0.000000
  126        4.027130  -0.000000

  0.3333333E+00  0.3885513E-15  0.1262378E-14  0.2469136E-01
    1      -11.257040   1.000000
    2      -10.721400   1.000000
    3      -10.022304   1.000000
    4       -9.797875   1.000000
    5       -9.434465   1.000000
    6       -9.083626   1.000000
    7       -8.857898   1.000000
    8       -8.610098   1.000000
    9       -8.529822   1.000000
   10       -8.459820   1.000000
   11       -8.410215   1.000000
   12       -8.335024   1.000000
   13       -8.248182   1.000000
   14       -7.963588   1.000000
   15       -7.617072   1.000000
   16       -7.574966   1.000000
   17       -6.663021   1.000000
   18       -6.654138   1.000000
   19       -6.494841   1.000000
   20       -6.319830   1.000000
   21       -6.181851   1.000000
   22       -6.132575   1.000000
   23       -5.962596   1.000000
   24       -5.933603   1.000000
   25       -5.804482   1.000000
   26       -5.608204   1.000000
   27       -5.171457   1.000000
   28       -5.024545   1.000000
   29       -4.919965   1.000000
   30       -4.705222   1.000000
   31       -4.490380   1.000000
   32       -4.267788   1.000000
   33       -4.229865   1.000000
   34       -3.984060   1.000000
   35       -3.871528   1.000000
   36       -3.808192   1.000000
   37       -3.674869   1.000000
   38       -3.614660   1.000000
   39       -3.604436   1.000000
   40       -3.565985   1.000000
   41       -3.511443   1.000000
   42       -3.475391   1.000000
   43       -3.102013   1.000000
   44       -2.826296   1.000000
   45       -2.801957   1.000000
   46       -2.760604   1.000000
   47       -2.612685   1.000000
   48       -2.501152   1.000000
   49       -2.457896   1.000000
   50       -2.356057   1.000000
   51       -2.259480   1.000000
   52       -2.194902   1.000000
   53       -2.140159   1.000000
   54       -2.025457   1.000000
   55       -1.999050   1.000000
   56       -1.936925   1.000000
   57       -1.847363   1.000000
   58       -1.799447   1.000000
   59       -1.777201   1.000000
   60       -1.690720   1.000000
   61       -1.660652   1.000000
   62       -1.634526   1.000000
   63       -1.576853   1.000000
   64       -1.519292   1.000000
   65       -1.475010   1.000000
   66       -1.275367   1.000000
   67       -1.185623   1.000000
   68       -1.077108   1.000000
   69       -1.037632   1.000000
   70       -0.958983   1.000000
   71       -0.861683   1.000000
   72       -0.811402   1.000000
   73       -0.685825   1.000000
   74       -0.618566   1.000000
   75       -0.454442   1.000000
   76       -0.425145   1.000000
   77       -0.341002   1.000000
   78       -0.109274   1.000000
   79       -0.064343   1.000000
   80        0.007878   1.000000
   81        0.255042   1.000000
   82        0.282764   1.000000
   83        0.473988   1.000000
   84        0.544579   1.000000
   85        0.642484   1.000000
   86        0.782163   1.000000
   87        0.989865   1.000000
   88        1.007603   1.000000
   89        1.101000   1.000000
   90        1.153261   1.000000
   91        1.253540   1.000000
   92        1.319309   1.000000
   93        1.561753   1.000002
   94        1.627866   1.000017
   95        1.661741   1.000047
   96        1.986868   1.027837
   97        2.070103   1.031542
   98        2.200377   0.828214
   99        2.329304   0.321581
  100        2.584854  -0.027914
  101        2.650947  -0.013505
  102        2.733111  -0.003477
  103        2.806464  -0.000725
  104        2.868621  -0.000151
  105        2.915102  -0.000040
  106        3.069898  -0.000000
  107        3.111304  -0.000000
  108        3.149288  -0.000000
  109        3.186617  -0.000000
  110        3.232615  -0.000000
  111        3.307649  -0.000000
  112        3.329065  -0.000000
  113        3.384862  -0.000000
  114        3.405244  -0.000000
  115        3.497863  -0.000000
  116        3.594543  -0.000000
  117        3.613417  -0.000000
  118        3.671178  -0.000000
  119        3.724534  -0.000000
  120        3.777750  -0.000000
  121        3.793823  -0.000000
  122        3.832047  -0.000000
  123        3.897465  -0.000000
  124        3.929712  -0.000000
  125        4.048432  -0.000000
  126        4.083284  -0.000000

  0.4444444E+00  0.3777319E-15  0.1262376E-14  0.2469136E-01
    1      -10.904269   1.000000
    2      -10.401594   1.000000
    3      -10.316511   1.000000
    4       -9.935564   1.000000
    5       -9.729456   1.000000
    6       -9.425961   1.000000
    7       -8.723701   1.000000
    8       -8.623776   1.000000
    9       -8.533763   1.000000
   10       -8.498984   1.000000
   11       -8.401705   1.000000
   12       -8.317490   1.000000
   13       -8.279269   1.000000
   14       -7.981813   1.000000
   15       -7.961570   1.000000
   16       -7.847550   1.000000
   17       -6.621344   1.000000
   18       -6.600437   1.000000
   19       -6.527194   1.000000
   20       -6.189564   1.000000
   21       -5.980582   1.000000
   22       -5.847167   1.000000
   23       -5.828135   1.000000
   24       -5.678373   1.000000
   25       -5.666763   1.000000
   26       -5.414034   1.000000
   27       -4.658339   1.000000
   28       -4.503198   1.000000
   29       -4.386503   1.000000
   30       -4.326833   1.000000
   31       -4.268028   1.000000
   32       -4.189032   1.000000
   33       -4.064881   1.000000
   34       -4.030049   1.000000
   35       -3.977341   1.000000
   36       -3.939026   1.000000
   37       -3.865371   1.000000
   38       -3.772951   1.000000
   39       -3.733431   1.000000
   40       -3.623184   1.000000
   41       -3.526216   1.000000
   42       -3.463019   1.000000
   43       -3.351270   1.000000
   44       -3.219894   1.000000
   45       -2.907843   1.000000
   46       -2.828024   1.000000
   47       -2.585002   1.000000
   48       -2.528814   1.000000
   49       -2.472280   1.000000
   50       -2.350553   1.000000
   51       -2.270292   1.000000
   52       -2.245463   1.000000
   53       -2.208392   1.000000
   54       -2.150575   1.000000
   55       -2.072253   1.000000
   56       -2.035695   1.000000
   57       -1.955430   1.000000
   58       -1.892077   1.000000
   59       -1.832525   1.000000
   60       -1.800879   1.000000
   61       -1.730813   1.000000
   62       -1.697853   1.000000
   63       -1.673299   1.000000
   64       -1.624285   1.000000
   65       -1.528163   1.000000
   66       -1.474566   1.000000
   67       -1.415661   1.000000
   68       -1.219816   1.000000
   69       -1.070579   1.000000
   70       -0.995563   1.000000
   71       -0.902654   1.000000
   72       -0.813751   1.000000
   73       -0.720788   1.000000
   74       -0.588440   1.000000
   75       -0.493451   1.000000
   76       -0.408131   1.000000
   77       -0.361110   1.000000
   78       -0.273876   1.000000
   79       -0.005942   1.000000
   80        0.071650   1.000000
   81        0.176602   1.000000
   82        0.304728   1.000000
   83        0.482036   1.000000
   84        0.593822   1.000000
   85        0.646269   1.000000
   86        0.798440   1.000000
   87        0.861746   1.000000
   88        0.974416   1.000000
   89        1.064174   1.000000
   90        1.089254   1.000000
   91        1.291974   1.000000
   92        1.313590   1.000000
   93        1.399155   1.000000
   94        1.754223   1.000553
   95        1.808575   1.001888
   96        2.029147   1.034952
   97        2.078615   1.028561
   98        2.170842   0.908938
   99        2.216855   0.774217
  100        2.276839   0.538868
  101        2.330534   0.316782
  102        2.522570  -0.035169
  103        2.722198  -0.004270
  104        2.809428  -0.000676
  105        2.877908  -0.000117
  106        2.938095  -0.000020
  107        3.054605  -0.000000
  108        3.067873  -0.000000
  109        3.142620  -0.000000
  110        3.156781  -0.000000
  111        3.193311  -0.000000
  112        3.277236  -0.000000
  113        3.320929  -0.000000
  114        3.329816  -0.000000
  115        3.464286  -0.000000
  116        3.539414  -0.000000
  117        3.606290  -0.000000
  118        3.693543  -0.000000
  119        3.730417  -0.000000
  120        3.771283  -0.000000
  121        3.829898  -0.000000
  122        3.877384  -0.000000
  123        3.952884  -0.000000
  124        3.980754  -0.000000
  125        4.085110  -0.000000
  126        4.149343  -0.000000

  0.3742002E-15  0.1111111E+00  0.1262378E-14  0.2469136E-01
    1      -11.701669   1.000000
    2      -11.129000   1.000000
    3      -10.341862   1.000000
    4       -9.132156   1.000000
    5       -8.887203   1.000000
    6       -8.515591   1.000000
    7       -8.504011   1.000000
    8       -8.410223   1.000000
    9       -8.323195   1.000000
   10       -8.116158   1.000000
   11       -8.094780   1.000000
   12       -7.983302   1.000000
   13       -7.959717   1.000000
   14       -7.817748   1.000000
   15       -7.343147   1.000000
   16       -7.260184   1.000000
   17       -7.126120   1.000000
   18       -7.028662   1.000000
   19       -6.963912   1.000000
   20       -6.889658   1.000000
   21       -6.696017   1.000000
   22       -6.377427   1.000000
   23       -6.312103   1.000000
   24       -6.166187   1.000000
   25       -6.040566   1.000000
   26       -6.028999   1.000000
   27       -5.874112   1.000000
   28       -5.767455   1.000000
   29       -5.618342   1.000000
   30       -5.385579   1.000000
   31       -4.911667   1.000000
   32       -4.738710   1.000000
   33       -4.707516   1.000000
   34       -4.545571   1.000000
   35       -4.501890   1.000000
   36       -4.187118   1.000000
   37       -4.095957   1.000000
   38       -3.438187   1.000000
   39       -3.411984   1.000000
   40       -3.075514   1.000000
   41       -3.061247   1.000000
   42       -3.012307   1.000000
   43       -2.970429   1.000000
   44       -2.750203   1.000000
   45       -2.641157   1.000000
   46       -2.608809   1.000000
   47       -2.497856   1.000000
   48       -2.288038   1.000000
   49       -2.138646   1.000000
   50       -2.085335   1.000000
   51       -2.001685   1.000000
   52       -1.948258   1.000000
   53       -1.882736   1.000000
   54       -1.848039   1.000000
   55       -1.715604   1.000000
   56       -1.662655   1.000000
   57       -1.628264   1.000000
   58       -1.602806   1.000000
   59       -1.568803   1.000000
   60       -1.490101   1.000000
   61       -1.430079   1.000000
   62       -1.389843   1.000000
   63       -1.316321   1.000000
   64       -1.192051   1.000000
   65       -1.120775   1.000000
   66       -1.058801   1.000000
   67       -1.033897   1.000000
   68       -0.862983   1.000000
   69       -0.837663   1.000000
   70       -0.772971   1.000000
   71       -0.625695   1.000000
   72       -0.545007   1.000000
   73       -0.513055   1.000000
   74       -0.461935   1.000000
   75       -0.401843   1.000000
   76       -0.305675   1.000000
   77       -0.234991   1.000000
   78       -0.175790   1.000000
   79       -0.048832   1.000000
   80        0.027404   1.000000
   81        0.170456   1.000000
   82        0.374086   1.000000
   83        0.412912   1.000000
   84        0.842870   1.000000
   85        0.906891   1.000000
   86        1.041617   1.000000
   87        1.170672   1.000000
   88        1.281185   1.000000
   89        1.301999   1.000000
   90        1.330051   1.000000
   91        1.355009   1.000000
   92        1.400390   1.000000
   93        1.539805   1.000001
   94        1.675378   1.000069
   95        1.743803   1.000428
   96        1.762649   1.000676
   97        2.236935   0.700982
   98        2.304102   0.423899
   99        2.486590  -0.025412
  100        2.608349  -0.022532
  101        2.656213  -0.012553
  102        2.707414  -0.005575
  103        2.785461  -0.001173
  104        2.906143  -0.000053
  105        3.067237  -0.000000
  106        3.257876  -0.000000
  107        3.267078  -0.000000
  108        3.294091  -0.000000
  109        3.319656  -0.000000
  110        3.368108  -0.000000
  111        3.402999  -0.000000
  112        3.459459  -0.000000
  113        3.479269  -0.000000
  114        3.521459  -0.000000
  115        3.529195  -0.000000
  116        3.577393  -0.000000
  117        3.619718  -0.000000
  118        3.633150  -0.000000
  119        3.715646  -0.000000
  120        3.753295  -0.000000
  121        3.780660  -0.000000
  122        3.833540  -0.000000
  123        3.880964  -0.000000
  124        3.901832  -0.000000
  125        3.998971  -0.000000
  126        4.027887  -0.000000

  0.1111111E+00  0.1111111E+00  0.1262378E-14  0.2469136E-01
    1      -11.588793   1.000000
    2      -11.024698   1.000000
    3      -10.257484   1.000000
    4       -9.066841   1.000000
    5       -8.900281   1.000000
    6       -8.814245   1.000000
    7       -8.691880   1.000000
    8       -8.636988   1.000000
    9       -8.628950   1.000000
   10       -8.485837   1.000000
   11       -8.408444   1.000000
   12       -7.982440   1.000000
   13       -7.801606   1.000000
   14       -7.598087   1.000000
   15       -7.514929   1.000000
   16       -7.216722   1.000000
   17       -7.056436   1.000000
   18       -6.960300   1.000000
   19       -6.888863   1.000000
   20       -6.503779   1.000000
   21       -6.463986   1.000000
   22       -6.305196   1.000000
   23       -6.162245   1.000000
   24       -6.105622   1.000000
   25       -5.944360   1.000000
   26       -5.795459   1.000000
   27       -5.786069   1.000000
   28       -5.661674   1.000000
   29       -5.445394   1.000000
   30       -5.281372   1.000000
   31       -5.021895   1.000000
   32       -4.812124   1.000000
   33       -4.280983   1.000000
   34       -4.252490   1.000000
   35       -4.187753   1.000000
   36       -4.026208   1.000000
   37       -3.821725   1.000000
   38       -3.466659   1.000000
   39       -3.430078   1.000000
   40       -3.284704   1.000000
   41       -3.159611   1.000000
   42       -3.069943   1.000000
   43       -3.008308   1.000000
   44       -2.859766   1.000000
   45       -2.699003   1.000000
   46       -2.665242   1.000000
   47       -2.517688   1.000000
   48       -2.414861   1.000000
   49       -2.361767   1.000000
   50       -2.164310   1.000000
   51       -2.090412   1.000000
   52       -1.923073   1.000000
   53       -1.909264   1.000000
   54       -1.830752   1.000000
   55       -1.805094   1.000000
   56       -1.782591   1.000000
   57       -1.736748   1.000000
   58       -1.718249   1.000000
   59       -1.592923   1.000000
   60       -1.535261   1.000000
   61       -1.449556   1.000000
   62       -1.428960   1.000000
   63       -1.404437   1.000000
   64       -1.340746   1.000000
   65       -1.304253   1.000000
   66       -1.192110   1.000000
   67       -1.050093   1.000000
   68       -0.958551   1.000000
   69       -0.899760   1.000000
   70       -0.785660   1.000000
   71       -0.759468   1.000000
   72       -0.664158   1.000000
   73       -0.587185   1.000000
   74       -0.462477   1.000000
   75       -0.381801   1.000000
   76       -0.339601   1.000000
   77       -0.220200   1.000000
   78       -0.139569   1.000000
   79       -0.077698   1.000000
   80        0.091479   1.000000
   81        0.156478   1.000000
   82        0.306883   1.000000
   83        0.390995   1.000000
   84        0.468657   1.000000
   85        0.742098   1.000000
   86        1.023508   1.000000
   87        1.129205   1.000000
   88        1.203392   1.000000
   89        1.211243   1.000000
   90        1.257945   1.000000
   91        1.310225   1.000000
   92        1.424010   1.000000
   93        1.557453   1.000002
   94        1.697018   1.000127
   95        1.757376   1.000596
   96        1.829192   1.002874
   97        2.273532   0.552795
   98        2.380459   0.145600
   99        2.474050  -0.017738
  100        2.525164  -0.035322
  101        2.713391  -0.005014
  102        2.751096  -0.002438
  103        2.905921  -0.000053
  104        2.980445  -0.000005
  105        3.122959  -0.000000
  106        3.141067  -0.000000
  107        3.199634  -0.000000
  108        3.232327  -0.000000
  109        3.321714  -0.000000
  110        3.361153  -0.000000
  111        3.399856  -0.000000
  112        3.415651  -0.000000
  113        3.452893  -0.000000
  114        3.473286  -0.000000
  115        3.501908  -0.000000
  116        3.579305  -0.000000
  117        3.600428  -0.000000
  118        3.645362  -0.000000
  119        3.673589  -0.000000
  120        3.724525  -0.000000
  121        3.753058  -0.000000
  122        3.835785  -0.000000
  123        3.844089  -0.000000
  124        3.901397  -0.000000
  125        3.985513  -0.000000
  126        4.022458  -0.000000

  0.2222222E+00  0.1111111E+00  0.1262377E-14  0.2469136E-01
    1      -11.366485   1.000000
    2      -10.820385   1.000000
    3      -10.095297   1.000000
    4       -9.472900   1.000000
    5       -9.169796   1.000000
    6       -8.994534   1.000000