   73   73   85    1
  0.2115814E+02  0.1036705E-08  0.2428040E-08  0.6136055E-09  0.5000000E-15
   1.0000000000000000E-004
  CAR 
 Name                                    
    277     15    180

  0.3742002E-15  0.1262379E-14  0.3742002E-15  0.2222222E-01
    1      -14.157341   1.000000
    2      -12.977473   1.000000
    3      -12.975999   1.000000
    4      -12.931271   1.000000
    5      -12.025751   1.000000
    6      -11.820839   1.000000
    7      -11.812232   1.000000
    8      -11.607854   1.000000
    9      -11.603642   1.000000
   10      -11.408045   1.000000
   11      -11.343731   1.000000
   12      -11.129807   1.000000
   13      -11.106991   1.000000
   14      -10.629511   1.000000
   15      -10.571564   1.000000
   16      -10.358696   1.000000
   17      -10.314257   1.000000
   18      -10.222709   1.000000
   19       -9.746997   1.000000
   20       -9.732992   1.000000
   21       -9.663393   1.000000
   22       -9.654931   1.000000
   23       -9.494112   1.000000
   24       -9.433486   1.000000
   25       -8.998259   1.000000
   26       -8.951116   1.000000
   27       -8.628348   1.000000
   28       -8.597021   1.000000
   29       -8.311085   1.000000
   30       -8.306106   1.000000
   31       -8.288147   1.000000
   32       -7.907717   1.000000
   33       -7.884597   1.000000
   34       -7.385879   1.000000
   35       -7.357300   1.000000
   36       -7.271919   1.000000
   37       -7.157069   1.000000
   38       -6.951205   1.000000
   39       -6.941602   1.000000
   40       -6.864403   1.000000
   41       -6.863006   1.000000
   42       -6.848882   1.000000
   43       -6.615720   1.000000
   44       -6.563768   1.000000
   45       -6.500119   1.000000
   46       -6.415157   1.000000
   47       -6.309618   1.000000
   48       -6.275415   1.000000
   49       -6.267396   1.000000
   50       -6.009092   1.000000
   51       -5.952315   1.000000
   52       -5.817263   1.000000
   53       -5.799831   1.000000
   54       -5.792230   1.000000
   55       -5.675125   1.000000
   56       -5.634803   1.000000
   57       -5.592171   1.000000
   58       -5.432439   1.000000
   59       -5.374094   1.000000
   60       -5.339716   1.000000
   61       -5.069574   1.000000
   62       -4.878774   1.000000
   63       -4.863122   1.000000
   64       -4.812202   1.000000
   65       -4.765123   1.000000
   66       -4.704955   1.000000
   67       -4.611847   1.000000
   68       -4.566405   1.000000
   69       -4.308299   1.000000
   70       -4.265882   1.000000
   71       -4.217460   1.000000
   72       -4.202538   1.000000
   73       -4.194088   1.000000
   74       -4.107524   1.000000
   75       -4.100136   1.000000
   76       -4.082927   1.000000
   77       -4.063404   1.000000
   78       -3.984693   1.000000
   79       -3.945790   1.000000
   80       -3.758569   1.000000
   81       -3.745558   1.000000
   82       -3.743155   1.000000
   83       -3.730815   1.000000
   84       -3.705570   1.000000
   85       -3.670051   1.000000
   86       -3.661233   1.000000
   87       -3.659194   1.000000
   88       -3.639599   1.000000
   89       -3.614804   1.000000
   90       -3.592601   1.000000
   91       -3.517523   1.000000
   92       -3.415700   1.000000
   93       -3.121980   1.000000
   94       -3.087517   1.000000
   95       -3.084257   1.000000
   96       -2.970438   1.000000
   97       -2.943864   1.000000
   98       -2.875507   1.000000
   99       -2.748063   1.000000
  100       -2.592904   1.000000
  101       -2.486192   1.000000
  102       -2.475988   1.000000
  103       -2.457649   1.000000
  104       -2.405580   1.000000
  105       -2.284991   1.000000
  106       -2.197474   1.000000
  107       -2.191131   1.000000
  108       -2.161143   1.000000
  109       -2.117902   1.000000
  110       -2.074243   1.000000
  111       -2.003336   1.000000
  112       -1.929747   1.000000
  113       -1.888294   1.000000
  114       -1.805364   1.000000
  115       -1.756605   1.000000
  116       -1.721137   1.000000
  117       -1.716830   1.000000
  118       -1.686389   1.000000
  119       -1.576717   1.000000
  120       -1.515629   1.000000
  121       -1.328845   1.000000
  122       -1.101074   1.000000
  123       -0.993671   1.000000
  124       -0.982075   1.000000
  125       -0.900830   1.000000
  126       -0.758783   1.000000
  127       -0.600220   1.000000
  128       -0.592111   1.000000
  129       -0.504745   1.000000
  130       -0.479423   1.000000
  131       -0.224574   1.000000
  132       -0.207610   1.000000
  133       -0.071081   1.000566
  134        0.090304   1.028817
  135        0.124165   0.960453
  136        0.132828   0.926647
  137        0.205762   0.403958
  138        0.282577  -0.008241
  139        0.311607  -0.035011
  140        0.311629  -0.035015
  141        0.396369  -0.007481
  142        0.434273  -0.001794
  143        0.443213  -0.001217
  144        0.456432  -0.000663
  145        0.470178  -0.000338
  146        0.512121  -0.000033
  147        0.531321  -0.000010
  148        0.640882  -0.000000
  149        0.677772  -0.000000
  150        0.687966  -0.000000
  151        0.828081  -0.000000
  152        0.919545  -0.000000
  153        0.953585  -0.000000
  154        1.024264  -0.000000
  155        1.030639  -0.000000
  156        1.041248  -0.000000
  157        1.072297  -0.000000
  158        1.179296  -0.000000
  159        1.203052  -0.000000
  160        1.210399  -0.000000
  161        1.212325  -0.000000
  162        1.248707  -0.000000
  163        1.261530  -0.000000
  164        1.270133  -0.000000
  165        1.392435  -0.000000
  166        1.451717  -0.000000
  167        1.469229  -0.000000
  168        1.477428  -0.000000
  169        1.514371  -0.000000
  170        1.518448  -0.000000
  171        1.526222  -0.000000
  172        1.546715  -0.000000
  173        1.591897  -0.000000
  174        1.617884  -0.000000
  175        1.622319  -0.000000
  176        1.641406  -0.000000
  177        1.648707  -0.000000
  178        1.754069  -0.000000
  179        1.795357  -0.000000
  180        1.864472  -0.000000

  0.2000000E+00  0.1262379E-14  0.3742002E-15  0.4444444E-01
    1      -14.108099   1.000000
    2      -13.389475   1.000000
    3      -12.887697   1.000000
    4      -12.486578   1.000000
    5      -12.209580   1.000000
    6      -12.009610   1.000000
    7      -11.760209   1.000000
    8      -11.421232   1.000000
    9      -11.398778   1.000000
   10      -11.354033   1.000000
   11      -11.297929   1.000000
   12      -11.214638   1.000000
   13      -10.991975   1.000000
   14      -10.724867   1.000000
   15      -10.702671   1.000000
   16      -10.681908   1.000000
   17      -10.607434   1.000000
   18       -9.913724   1.000000
   19       -9.756782   1.000000
   20       -9.688957   1.000000
   21       -9.609687   1.000000
   22       -9.600645   1.000000
   23       -9.521432   1.000000
   24       -9.451309   1.000000
   25       -9.153218   1.000000
   26       -8.928832   1.000000
   27       -8.398632   1.000000
   28       -8.316430   1.000000
   29       -8.286856   1.000000
   30       -8.248062   1.000000
   31       -8.218598   1.000000
   32       -8.181928   1.000000
   33       -7.732428   1.000000
   34       -7.599861   1.000000
   35       -7.383888   1.000000
   36       -7.357348   1.000000
   37       -7.252761   1.000000
   38       -7.088643   1.000000
   39       -7.035972   1.000000
   40       -6.865009   1.000000
   41       -6.811206   1.000000
   42       -6.758245   1.000000
   43       -6.631249   1.000000
   44       -6.600584   1.000000
   45       -6.491602   1.000000
   46       -6.455859   1.000000
   47       -6.342899   1.000000
   48       -6.234699   1.000000
   49       -6.182946   1.000000
   50       -6.176124   1.000000
   51       -5.858880   1.000000
   52       -5.828582   1.000000
   53       -5.733831   1.000000
   54       -5.556534   1.000000
   55       -5.513299   1.000000
   56       -5.496079   1.000000
   57       -5.466809   1.000000
   58       -5.427433   1.000000
   59       -5.404052   1.000000
   60       -5.353930   1.000000
   61       -5.278717   1.000000
   62       -4.989636   1.000000
   63       -4.955392   1.000000
   64       -4.874963   1.000000
   65       -4.730181   1.000000
   66       -4.674557   1.000000
   67       -4.658491   1.000000
   68       -4.589017   1.000000
   69       -4.281536   1.000000
   70       -4.273526   1.000000
   71       -4.256247   1.000000
   72       -4.228940   1.000000
   73       -4.195239   1.000000
   74       -4.173903   1.000000
   75       -4.044281   1.000000
   76       -4.036451   1.000000
   77       -4.005425   1.000000
   78       -3.906053   1.000000
   79       -3.882996   1.000000
   80       -3.856027   1.000000
   81       -3.806858   1.000000
   82       -3.784422   1.000000
   83       -3.762876   1.000000
   84       -3.745326   1.000000
   85       -3.713067   1.000000
   86       -3.632265   1.000000
   87       -3.620091   1.000000
   88       -3.606692   1.000000
   89       -3.595026   1.000000
   90       -3.582717   1.000000
   91       -3.477009   1.000000
   92       -3.446767   1.000000
   93       -3.165401   1.000000
   94       -3.124536   1.000000
   95       -3.104394   1.000000
   96       -2.966932   1.000000
   97       -2.943191   1.000000
   98       -2.856512   1.000000
   99       -2.765599   1.000000
  100       -2.648785   1.000000
  101       -2.508562   1.000000
  102       -2.482758   1.000000
  103       -2.469894   1.000000
  104       -2.373420   1.000000
  105       -2.252331   1.000000
  106       -2.153979   1.000000
  107       -2.135202   1.000000
  108       -2.121023   1.000000
  109       -2.086252   1.000000
  110       -2.056280   1.000000
  111       -2.014079   1.000000
  112       -2.001992   1.000000
  113       -1.817143   1.000000
  114       -1.760288   1.000000
  115       -1.733655   1.000000
  116       -1.661144   1.000000
  117       -1.600604   1.000000
  118       -1.583919   1.000000
  119       -1.542458   1.000000
  120       -1.467730   1.000000
  121       -1.298798   1.000000
  122       -1.122241   1.000000
  123       -1.055383   1.000000
  124       -1.009085   1.000000
  125       -0.936458   1.000000
  126       -0.829429   1.000000
  127       -0.686412   1.000000
  128       -0.604073   1.000000
  129       -0.559778   1.000000
  130       -0.513488   1.000000
  131       -0.385526   1.000000
  132       -0.350520   1.000000
  133       -0.245332   1.000000
  134       -0.026327   1.003879
  135       -0.012634   1.006342
  136        0.078414   1.034734
  137        0.171394   0.688559
  138        0.280200  -0.003576
  139        0.295179  -0.025985
  140        0.402623  -0.006060
  141        0.436282  -0.001647
  142        0.476735  -0.000241
  143        0.481955  -0.000183
  144        0.493646  -0.000097
  145        0.536316  -0.000007
  146        0.555197  -0.000002
  147        0.590513  -0.000000
  148        0.616983  -0.000000
  149        0.716517  -0.000000
  150        0.767207  -0.000000
  151        0.890292  -0.000000
  152        0.954530  -0.000000
  153        0.979528  -0.000000
  154        1.049581  -0.000000
  155        1.092521  -0.000000
  156        1.104697  -0.000000
  157        1.165078  -0.000000
  158        1.175968  -0.000000
  159        1.197473  -0.000000
  160        1.202025  -0.000000
  161        1.272447  -0.000000
  162        1.286047  -0.000000
  163        1.293489  -0.000000
  164        1.322501  -0.000000
  165        1.397411  -0.000000
  166        1.439973  -0.000000
  167        1.458729  -0.000000
  168        1.469499  -0.000000
  169        1.495958  -0.000000
  170        1.520673  -0.000000
  171        1.537285  -0.000000
  172        1.576429  -0.000000
  173        1.588130  -0.000000
  174        1.636454  -0.000000
  175        1.651618  -0.000000
  176        1.692256  -0.000000
  177        1.708529  -0.000000
  178        1.798160  -0.000000
  179        1.854115  -0.000000
  180        1.865210  -0.000000

  0.4000000E+00  0.1262379E-14  0.3742002E-15  0.4444444E-01
    1      -13.961401   1.000000
    2      -13.720195   1.000000
    3      -12.750504   1.000000
    4      -12.521929   1.000000
    5      -11.961013   1.000000
    6      -11.932541   1.000000
    7      -11.878361   1.000000
    8      -11.369318   1.000000
    9      -11.328787   1.000000
   10      -11.323911   1.000000
   11      -11.187392   1.000000
   12      -11.161007   1.000000
   13      -10.973581   1.000000
   14      -10.933996   1.000000
   15      -10.850687   1.000000
   16      -10.811947   1.000000
   17      -10.711178   1.000000
   18      -10.227425   1.000000
   19       -9.766736   1.000000
   20       -9.723836   1.000000
   21       -9.524745   1.000000
   22       -9.479296   1.000000
   23       -9.431825   1.000000
   24       -9.364276   1.000000
   25       -9.173758   1.000000
   26       -8.906748   1.000000
   27       -8.436747   1.000000
   28       -8.183565   1.000000
   29       -8.012055   1.000000
   30       -7.972563   1.000000
   31       -7.938710   1.000000
   32       -7.907191   1.000000
   33       -7.880981   1.000000
   34       -7.874757   1.000000
   35       -7.624071   1.000000
   36       -7.594886   1.000000
   37       -7.469054   1.000000
   38       -7.379487   1.000000
   39       -7.238099   1.000000
   40       -6.963722   1.000000
   41       -6.831138   1.000000
   42       -6.642096   1.000000
   43       -6.606009   1.000000
   44       -6.530194   1.000000
   45       -6.516081   1.000000
   46       -6.282241   1.000000
   47       -6.211807   1.000000
   48       -6.141623   1.000000
   49       -6.037986   1.000000
   50       -6.006915   1.000000
   51       -5.980396   1.000000
   52       -5.880517   1.000000
   53       -5.873074   1.000000
   54       -5.700405   1.000000
   55       -5.602457   1.000000
   56       -5.450879   1.000000
   57       -5.306817   1.000000
   58       -5.273194   1.000000
   59       -5.265925   1.000000
   60       -5.231803   1.000000
   61       -5.183084   1.000000
   62       -5.057530   1.000000
   63       -5.030356   1.000000
   64       -4.856082   1.000000
   65       -4.802096   1.000000
   66       -4.731728   1.000000
   67       -4.569008   1.000000
   68       -4.511335   1.000000
   69       -4.461299   1.000000
   70       -4.380673   1.000000
   71       -4.283423   1.000000
   72       -4.239597   1.000000
   73       -4.226765   1.000000
   74       -4.192119   1.000000
   75       -4.153508   1.000000
   76       -4.094404   1.000000
   77       -4.077869   1.000000
   78       -3.971149   1.000000
   79       -3.871153   1.000000
   80       -3.849192   1.000000
   81       -3.840090   1.000000
   82       -3.837017   1.000000
   83       -3.789157   1.000000
   84       -3.737725   1.000000
   85       -3.636675   1.000000
   86       -3.627225   1.000000
   87       -3.599636   1.000000
   88       -3.465599   1.000000
   89       -3.450072   1.000000
   90       -3.423978   1.000000
   91       -3.409169   1.000000
   92       -3.361840   1.000000
   93       -3.279700   1.000000
   94       -3.217401   1.000000
   95       -3.185275   1.000000
   96       -3.100608   1.000000
   97       -2.978572   1.000000
   98       -2.971762   1.000000
   99       -2.802154   1.000000
  100       -2.654413   1.000000
  101       -2.493150   1.000000
  102       -2.427749   1.000000
  103       -2.343434   1.000000
  104       -2.336614   1.000000
  105       -2.320001   1.000000
  106       -2.227995   1.000000
  107       -2.172409   1.000000
  108       -2.129418   1.000000
  109       -2.105521   1.000000
  110       -2.090777   1.000000
  111       -1.840952   1.000000
  112       -1.755072   1.000000
  113       -1.739712   1.000000
  114       -1.662952   1.000000
  115       -1.652284   1.000000
  116       -1.572630   1.000000
  117       -1.494649   1.000000
  118       -1.382626   1.000000
  119       -1.360924   1.000000
  120       -1.252346   1.000000
  121       -1.218576   1.000000
  122       -1.206582   1.000000
  123       -1.184659   1.000000
  124       -1.130512   1.000000
  125       -1.088090   1.000000
  126       -0.908610   1.000000
  127       -0.852611   1.000000
  128       -0.836611   1.000000
  129       -0.733956   1.000000
  130       -0.716966   1.000000
  131       -0.575835   1.000000
  132       -0.491650   1.000000
  133       -0.246653   1.000000
  134       -0.219810   1.000000
  135       -0.079759   1.000369
  136        0.124787   0.958273
  137        0.172317   0.681385
  138        0.190622   0.531366
  139        0.326798  -0.034120
  140        0.368758  -0.016662
  141        0.403780  -0.005822
  142        0.419118  -0.003313
  143        0.473936  -0.000279
  144        0.494500  -0.000093
  145        0.545064  -0.000004
  146        0.559805  -0.000002
  147        0.681278  -0.000000
  148        0.707485  -0.000000
  149        0.828886  -0.000000
  150        0.857842  -0.000000
  151        1.011862  -0.000000
  152        1.024114  -0.000000
  153        1.077367  -0.000000
  154        1.093737  -0.000000
  155        1.114106  -0.000000
  156        1.178080  -0.000000
  157        1.207727  -0.000000
  158        1.275930  -0.000000
  159        1.288435  -0.000000
  160        1.309881  -0.000000
  161        1.323421  -0.000000
  162        1.331316  -0.000000
  163        1.350499  -0.000000
  164        1.414405  -0.000000
  165        1.452761  -0.000000
  166        1.459625  -0.000000
  167        1.476097  -0.000000
  168        1.487124  -0.000000
  169        1.550849  -0.000000
  170        1.566893  -0.000000
  171        1.593651  -0.000000
  172        1.629571  -0.000000
  173        1.635299  -0.000000
  174        1.659854  -0.000000
  175        1.666030  -0.000000
  176        1.692986  -0.000000
  177        1.743308  -0.000000
  178        1.775538  -0.000000
  179        1.821026  -0.000000
  180        1.858110  -0.000000

  0.3742002E-15  0.1262379E-14  0.1111111E+00  0.4444444E-01
    1      -14.111972   1.000000
    2      -12.942580   1.000000
    3      -12.941336   1.000000
    4      -12.893265   1.000000
    5      -12.131215   1.000000
    6      -11.792599   1.000000
    7      -11.783409   1.000000
    8      -11.653564   1.000000
    9      -11.649721   1.000000
   10      -11.477866   1.000000
   11      -11.303353   1.000000
   12      -11.139971   1.000000
   13      -11.118114   1.000000
   14      -10.605682   1.000000
   15      -10.595657   1.000000
   16      -10.334353   1.000000
   17      -10.295491   1.000000
   18      -10.183833   1.000000
   19       -9.773606   1.000000
   20       -9.759036   1.000000
   21       -9.681984   1.000000
   22       -9.647352   1.000000
   23       -9.503428   1.000000
   24       -9.413372   1.000000
   25       -8.980667   1.000000
   26       -8.970916   1.000000
   27       -8.624180   1.000000
   28       -8.590246   1.000000
   29       -8.333825   1.000000
   30       -8.290432   1.000000
   31       -8.130202   1.000000
   32       -7.989698   1.000000
   33       -7.919881   1.000000
   34       -7.486631   1.000000
   35       -7.461686   1.000000
   36       -7.255991   1.000000
   37       -7.132446   1.000000
   38       -6.940820   1.000000
   39       -6.928555   1.000000
   40       -6.802560   1.000000
   41       -6.800368   1.000000
   42       -6.769641   1.000000
   43       -6.599898   1.000000
   44       -6.553426   1.000000
   45       -6.505684   1.000000
   46       -6.426899   1.000000
   47       -6.338939   1.000000
   48       -6.313650   1.000000
   49       -6.298718   1.000000
   50       -5.956608   1.000000
   51       -5.889682   1.000000
   52       -5.856467   1.000000
   53       -5.810712   1.000000
   54       -5.796410   1.000000
   55       -5.596835   1.000000
   56       -5.569201   1.000000
   57       -5.545868   1.000000
   58       -5.406055   1.000000
   59       -5.353893   1.000000
   60       -5.318597   1.000000
   61       -5.052094   1.000000
   62       -4.838076   1.000000
   63       -4.824321   1.000000
   64       -4.781441   1.000000
   65       -4.729798   1.000000
   66       -4.694483   1.000000
   67       -4.607858   1.000000
   68       -4.573390   1.000000
   69       -4.301813   1.000000
   70       -4.281287   1.000000
   71       -4.245724   1.000000
   72       -4.211689   1.000000
   73       -4.188426   1.000000
   74       -4.136067   1.000000
   75       -4.123343   1.000000
   76       -4.109009   1.000000
   77       -4.093453   1.000000
   78       -4.091779   1.000000
   79       -3.956962   1.000000
   80       -3.923082   1.000000
   81       -3.915923   1.000000
   82       -3.839444   1.000000
   83       -3.798944   1.000000
   84       -3.785295   1.000000
   85       -3.708962   1.000000
   86       -3.679534   1.000000
   87       -3.656708   1.000000
   88       -3.631467   1.000000
   89       -3.617816   1.000000
   90       -3.566728   1.000000
   91       -3.512643   1.000000
   92       -3.409859   1.000000
   93       -3.113508   1.000000
   94       -3.083854   1.000000
   95       -3.059417   1.000000
   96       -2.929243   1.000000
   97       -2.877554   1.000000
   98       -2.814121   1.000000
   99       -2.667600   1.000000
  100       -2.623516   1.000000
  101       -2.578047   1.000000
  102       -2.559161   1.000000
  103       -2.385485   1.000000
  104       -2.371347   1.000000
  105       -2.346946   1.000000
  106       -2.255006   1.000000
  107       -2.161883   1.000000
  108       -2.155382   1.000000
  109       -2.115379   1.000000
  110       -2.112762   1.000000
  111       -1.991742   1.000000
  112       -1.903981   1.000000
  113       -1.871365   1.000000
  114       -1.851327   1.000000
  115       -1.799410   1.000000
  116       -1.753514   1.000000
  117       -1.674121   1.000000
  118       -1.651642   1.000000
  119       -1.466850   1.000000
  120       -1.438224   1.000000
  121       -1.222680   1.000000
  122       -1.169478   1.000000
  123       -1.077272   1.000000
  124       -0.911471   1.000000
  125       -0.837037   1.000000
  126       -0.711169   1.000000
  127       -0.694984   1.000000
  128       -0.679948   1.000000
  129       -0.636124   1.000000
  130       -0.373562   1.000000
  131       -0.313013   1.000000
  132       -0.291093   1.000000
  133        0.010686   1.013070
  134        0.087404   1.030903
  135        0.112783   0.993902
  136        0.131990   0.930245
  137        0.151677   0.827125
  138        0.212558   0.348555
  139        0.258053   0.063984
  140        0.278449   0.000155
  141        0.278635  -0.000254
  142        0.298750  -0.029126
  143        0.456778  -0.000652
  144        0.459633  -0.000569
  145        0.480195  -0.000201
  146        0.639805  -0.000000
  147        0.673805  -0.000000
  148        0.775398  -0.000000
  149        0.813916  -0.000000
  150        0.833955  -0.000000
  151        0.846480  -0.000000
  152        0.900191  -0.000000
  153        0.936876  -0.000000
  154        0.989475  -0.000000
  155        1.017159  -0.000000
  156        1.106461  -0.000000
  157        1.106928  -0.000000
  158        1.133291  -0.000000
  159        1.168039  -0.000000
  160        1.213762  -0.000000
  161        1.232867  -0.000000
  162        1.255922  -0.000000
  163        1.275136  -0.000000
  164        1.313107  -0.000000
  165        1.397518  -0.000000
  166        1.420593  -0.000000
  167        1.430453  -0.000000
  168        1.445743  -0.000000
  169        1.481670  -0.000000
  170        1.490027  -0.000000
  171        1.495366  -0.000000
  172        1.558979  -0.000000
  173        1.602626  -0.000000
  174        1.640790  -0.000000
  175        1.665526  -0.000000
  176        1.686922  -0.000000
  177        1.730990  -0.000000
  178        1.752014  -0.000000
  179        1.757826  -0.000000
  180        1.839538  -0.000000

  0.2000000E+00  0.1262379E-14  0.1111111E+00  0.8888889E-01
    1      -14.063129   1.000000
    2      -13.350778   1.000000
    3      -12.849839   1.000000
    4      -12.457490   1.000000
    5      -12.177498   1.000000
    6      -12.112066   1.000000
    7      -11.821884   1.000000
    8      -11.464071   1.000000
    9      -11.448656   1.000000
   10      -11.330262   1.000000
   11      -11.262947   1.000000
   12      -11.236883   1.000000
   13      -10.992909   1.000000
   14      -10.709146   1.000000
   15      -10.682722   1.000000
   16      -10.660215   1.000000
   17      -10.620293   1.000000
   18       -9.895666   1.000000
   19       -9.783941   1.000000
   20       -9.688796   1.000000
   21       -9.625365   1.000000
   22       -9.596230   1.000000
   23       -9.512145   1.000000
   24       -9.456823   1.000000
   25       -9.149617   1.000000
   26       -8.920839   1.000000
   27       -8.423978   1.000000
   28       -8.314280   1.000000
   29       -8.287602   1.000000
   30       -8.243310   1.000000
   31       -8.195973   1.000000
   32       -8.060336   1.000000
   33       -7.819046   1.000000
   34       -7.676775   1.000000
   35       -7.448291   1.000000
   36       -7.256518   1.000000
   37       -7.238842   1.000000
   38       -7.074659   1.000000
   39       -7.039684   1.000000
   40       -6.851295   1.000000
   41       -6.797238   1.000000
   42       -6.709235   1.000000
   43       -6.684163   1.000000
   44       -6.640830   1.000000
   45       -6.591467   1.000000
   46       -6.478400   1.000000
   47       -6.276789   1.000000
   48       -6.270258   1.000000
   49       -6.132372   1.000000
   50       -6.004741   1.000000
   51       -5.883531   1.000000
   52       -5.851753   1.000000
   53       -5.709752   1.000000
   54       -5.579209   1.000000
   55       -5.515197   1.000000
   56       -5.454416   1.000000
   57       -5.436486   1.000000
   58       -5.382353   1.000000
   59       -5.362980   1.000000
   60       -5.307803   1.000000
   61       -5.253582   1.000000
   62       -4.975337   1.000000
   63       -4.919528   1.000000
   64       -4.837129   1.000000
   65       -4.714089   1.000000
   66       -4.669827   1.000000
   67       -4.600781   1.000000
   68       -4.562678   1.000000
   69       -4.309589   1.000000
   70       -4.295252   1.000000
   71       -4.269942   1.000000
   72       -4.223208   1.000000
   73       -4.191334   1.000000
   74       -4.172715   1.000000
   75       -4.129965   1.000000
   76       -4.106304   1.000000
   77       -4.051643   1.000000
   78       -3.943223   1.000000
   79       -3.922307   1.000000
   80       -3.914106   1.000000
   81       -3.897387   1.000000
   82       -3.866827   1.000000
   83       -3.824992   1.000000
   84       -3.803732   1.000000
   85       -3.767799   1.000000
   86       -3.741881   1.000000
   87       -3.666704   1.000000
   88       -3.612372   1.000000
   89       -3.592066   1.000000
   90       -3.490498   1.000000
   91       -3.463126   1.000000
   92       -3.421753   1.000000
   93       -3.124008   1.000000
   94       -3.088949   1.000000
   95       -3.048060   1.000000
   96       -3.002365   1.000000
   97       -2.970606   1.000000
   98       -2.839211   1.000000
   99       -2.772612   1.000000
  100       -2.658550   1.000000
  101       -2.515619   1.000000
  102       -2.492718   1.000000
  103       -2.417165   1.000000
  104       -2.369779   1.000000
  105       -2.318099   1.000000
  106       -2.186212   1.000000
  107       -2.167263   1.000000
  108       -2.146688   1.000000
  109       -2.114572   1.000000
  110       -2.067052   1.000000
  111       -1.990711   1.000000
  112       -1.909780   1.000000
  113       -1.855034   1.000000
  114       -1.767002   1.000000
  115       -1.734896   1.000000
  116       -1.688407   1.000000
  117       -1.650607   1.000000
  118       -1.540110   1.000000
  119       -1.518257   1.000000
  120       -1.414091   1.000000
  121       -1.233626   1.000000
  122       -1.211410   1.000000
  123       -1.047572   1.000000
  124       -0.996682   1.000000
  125       -0.914255   1.000000
  126       -0.830094   1.000000
  127       -0.784233   1.000000
  128       -0.758315   1.000000
  129       -0.547187   1.000000
  130       -0.481502   1.000000
  131       -0.317962   1.000000
  132       -0.184152   1.000001
  133       -0.082817   1.000316
  134       -0.002772   1.008769
  135        0.009091   1.012500
  136        0.017751   1.015780
  137        0.077633   1.034902
  138        0.211643   0.355901
  139        0.236426   0.176355
  140        0.296583  -0.027310
  141        0.361425  -0.019830
  142        0.406236  -0.005341
  143        0.467770  -0.000382
  144        0.490519  -0.000115
  145        0.506807  -0.000046
  146        0.627340  -0.000000
  147        0.692739  -0.000000
  148        0.735813  -0.000000
  149        0.850368  -0.000000
  150        0.860227  -0.000000
  151        0.875430  -0.000000
  152        0.904932  -0.000000
  153        0.980115  -0.000000
  154        1.057579  -0.000000
  155        1.133486  -0.000000
  156        1.153170  -0.000000
  157        1.161411  -0.000000
  158        1.185595  -0.000000
  159        1.205108  -0.000000
  160        1.213118  -0.000000
  161        1.242124  -0.000000
  162        1.260229  -0.000000
  163        1.275693  -0.000000
  164        1.355164  -0.000000
  165        1.380538  -0.000000
  166        1.407308  -0.000000
  167        1.414543  -0.000000
  168        1.450919  -0.000000
  169        1.495710  -0.000000
  170        1.521413  -0.000000
  171        1.537682  -0.000000
  172        1.546940  -0.000000
  173        1.621080  -0.000000