 running on   72 total cores
 distrk:  each k-point on   72 cores,    1 groups
 distr:  one band on   12 cores,    6 groups
 using from now: INCAR     
 vasp.5.4.4.18Apr17-6-g9f103f2a35 (build Dec  7 2020 12:43:57) complex           
 POSCAR found type information on POSCAR  Mo V  B  H 
 POSCAR found :  4 types and      73 ions
 scaLAPACK will be used
 LDA part: xc-table for Pade appr. of Perdew
 POSCAR, INCAR and KPOINTS ok, starting setup
 resort distribution
 resort distribution
 resort distribution
 resort distribution
 resort distribution
 resort distribution
 resort distribution
 resort distribution
 resort distribution
 resort distribution
 resort distribution
 resort distribution
 resort distribution
 resort distribution
 resort distribution
 resort distribution
 resort distribution
 resort distribution
 resort distribution
 resort distribution
 resort distribution
 resort distribution
 resort distribution
 resort distribution
 resort distribution
 resort distribution
 resort distribution
 resort distribution
 resort distribution
 resort distribution
 resort distribution
 resort distribution
 resort distribution
 resort distribution
 resort distribution
 resort distribution
 resort distribution
 resort distribution
 resort distribution
 resort distribution
 resort distribution
 resort distribution
 resort distribution
 resort distribution
 resort distribution
 resort distribution
 resort distribution
 resort distribution
 resort distribution
 resort distribution
 resort distribution
 resort distribution
 resort distribution
 resort distribution
 resort distribution
 resort distribution
 resort distribution
 resort distribution
 resort distribution
 resort distribution
 resort distribution
 resort distribution
 resort distribution
 resort distribution
 resort distribution
 resort distribution
 resort distribution
 resort distribution
 resort distribution
 resort distribution
 resort distribution
 resort distribution
 FFT: planning ...
 WAVECAR not read
 augmentation electrons   277.02611913072911     
 soft         electrons   0.0000000000000000     
 augmentation electrons   277.02611913072911     
 soft         electrons   0.0000000000000000     
 augmentation electrons   277.02611913072911     
 soft         electrons   0.0000000000000000     
 augmentation electrons   277.02611913072911     
 soft         electrons   0.0000000000000000     
 augmentation electrons   277.02611913072911     
 soft         electrons   0.0000000000000000     
 augmentation electrons   277.02611913072911     
 soft         electrons   0.0000000000000000     
 augmentation electrons   277.02611913072911     
 soft         electrons   0.0000000000000000     
 augmentation electrons   277.02611913072911     
 soft         electrons   0.0000000000000000     
 augmentation electrons   277.02611913072911     
 soft         electrons   0.0000000000000000     
 augmentation electrons   277.02611913072911     
 soft         electrons   0.0000000000000000     
 augmentation electrons   277.02611913072911     
 soft         electrons   0.0000000000000000     
 augmentation electrons   277.02611913072911     
 soft         electrons   0.0000000000000000     
 augmentation electrons   277.02611913072911     
 soft         electrons   0.0000000000000000     
 augmentation electrons   277.02611913072911     
 soft         electrons   0.0000000000000000     
 augmentation electrons   277.02611913072911     
 soft         electrons   0.0000000000000000     
 augmentation electrons   277.02611913072911     
 soft         electrons   0.0000000000000000     
 augmentation electrons   277.02611913072911     
 soft         electrons   0.0000000000000000     
 augmentation electrons   277.02611913072911     
 soft         electrons   0.0000000000000000     
 augmentation electrons   277.02611913072911     
 soft         electrons   0.0000000000000000     
 augmentation electrons   277.02611913072911     
 soft         electrons   0.0000000000000000     
 augmentation electrons   277.02611913072911     
 soft         electrons   0.0000000000000000     
 augmentation electrons   277.02611913072911     
 soft         electrons   0.0000000000000000     
 augmentation electrons   277.02611913072911     
 soft         electrons   0.0000000000000000     
 augmentation electrons   277.02611913072911     
 soft         electrons   0.0000000000000000     
 augmentation electrons   277.02611913072911     
 soft         electrons   0.0000000000000000     
 augmentation electrons   277.02611913072911     
 soft         electrons   0.0000000000000000     
 augmentation electrons   277.02611913072911     
 soft         electrons   0.0000000000000000     
 augmentation electrons   277.02611913072911     
 soft         electrons   0.0000000000000000     
 augmentation electrons   277.02611913072911     
 soft         electrons   0.0000000000000000     
 augmentation electrons   277.02611913072911     
 soft         electrons   0.0000000000000000     
 augmentation electrons   277.02611913072911     
 soft         electrons   0.0000000000000000     
 augmentation electrons   277.02611913072911     
 soft         electrons   0.0000000000000000     
 augmentation electrons   277.02611913072911     
 soft         electrons   0.0000000000000000     
 augmentation electrons   277.02611913072911     
 soft         electrons   0.0000000000000000     
 augmentation electrons   277.02611913072911     
 soft         electrons   0.0000000000000000     
 augmentation electrons   277.02611913072911     
 soft         electrons   0.0000000000000000     
 augmentation electrons   277.02611913072911     
 soft         electrons   0.0000000000000000     
 augmentation electrons   277.02611913072911     
 soft         electrons   0.0000000000000000     
 augmentation electrons   277.02611913072911     
 soft         electrons   0.0000000000000000     
 augmentation electrons   277.02611913072911     
 soft         electrons   0.0000000000000000     
 augmentation electrons   277.02611913072911     
 soft         electrons   0.0000000000000000     
 augmentation electrons   277.02611913072911     
 soft         electrons   0.0000000000000000     
 augmentation electrons   277.02611913072911     
 soft         electrons   0.0000000000000000     
 augmentation electrons   277.02611913072911     
 soft         electrons   0.0000000000000000     
 augmentation electrons   277.02611913072911     
 soft         electrons   0.0000000000000000     
 augmentation electrons   277.02611913072911     
 soft         electrons   0.0000000000000000     
 augmentation electrons   277.02611913072911     
 soft         electrons   0.0000000000000000     
 augmentation electrons   277.02611913072911     
 soft         electrons   0.0000000000000000     
 augmentation electrons   277.02611913072911     
 soft         electrons   0.0000000000000000     
 augmentation electrons   277.02611913072911     
 soft         electrons   0.0000000000000000     
 augmentation electrons   277.02611913072911     
 soft         electrons   0.0000000000000000     
 augmentation electrons   277.02611913072911     
 augmentation electrons   277.02611913072911     
 soft         electrons   0.0000000000000000     
 augmentation electrons   277.02611913072911     
 soft         electrons   0.0000000000000000     
 augmentation electrons   277.02611913072911     
 soft         electrons   0.0000000000000000     
 augmentation electrons   277.02611913072911     
 soft         electrons   0.0000000000000000     
 augmentation electrons   277.02611913072911     
 soft         electrons   0.0000000000000000     
 soft         electrons   0.0000000000000000     
 augmentation electrons   277.02611913072911     
 soft         electrons   0.0000000000000000     
 augmentation electrons   277.02611913072911     
 augmentation electrons   277.02611913072911     
 soft         electrons   0.0000000000000000     
 augmentation electrons   277.02611913072911     
 soft         electrons   0.0000000000000000     
 augmentation electrons   277.02611913072911     
 soft         electrons   0.0000000000000000     
 augmentation electrons   277.02611913072911     
 soft         electrons   0.0000000000000000     
 augmentation electrons   277.02611913072911     
 soft         electrons   0.0000000000000000     
 augmentation electrons   277.02611913072911     
 soft         electrons   0.0000000000000000     
 augmentation electrons   277.02611913072911     
 soft         electrons   0.0000000000000000     
 soft         electrons   0.0000000000000000     
 augmentation electrons   277.02611913072911     
 soft         electrons   0.0000000000000000     
 augmentation electrons   277.02611913072911     
 soft         electrons   0.0000000000000000     
 augmentation electrons   277.02611913072911     
 soft         electrons   0.0000000000000000     
 augmentation electrons   277.02611913072911     
 soft         electrons   0.0000000000000000     
 augmentation electrons   277.02611913072911     
 soft         electrons   0.0000000000000000     
 augmentation electrons   277.02611913072911     
 soft         electrons   0.0000000000000000     
 total        electrons   277.02611913072911     
 total        electrons   277.02611913072911     
 total        electrons   277.02611913072911     
 total        electrons   277.02611913072911     
 total        electrons   277.02611913072911     
 total        electrons   277.02611913072911     
 total        electrons   277.02611913072911     
 total        electrons   277.02611913072911     
 total        electrons   277.02611913072911     
 total        electrons   277.02611913072911     
 total        electrons   277.02611913072911     
 total        electrons   277.02611913072911     
 total        electrons   277.02611913072911     
 total        electrons   277.02611913072911     
 total        electrons   277.02611913072911     
 total        electrons   277.02611913072911     
 total        electrons   277.02611913072911     
 total        electrons   277.02611913072911     
 total        electrons   277.02611913072911     
 total        electrons   277.02611913072911     
 total        electrons   277.02611913072911     
 total        electrons   277.02611913072911     
 total        electrons   277.02611913072911     
 total        electrons   277.02611913072911     
 total        electrons   277.02611913072911     
 total        electrons   277.02611913072911     
 total        electrons   277.02611913072911     
 total        electrons   277.02611913072911     
 total        electrons   277.02611913072911     
 total        electrons   277.02611913072911     
 total        electrons   277.02611913072911     
 total        electrons   277.02611913072911     
 total        electrons   277.02611913072911     
 total        electrons   277.02611913072911     
 total        electrons   277.02611913072911     
 total        electrons   277.02611913072911     
 total        electrons   277.02611913072911     
 total        electrons   277.02611913072911     
 total        electrons   277.02611913072911     
 total        electrons   277.02611913072911     
 total        electrons   277.02611913072911     
 total        electrons   277.02611913072911     
 total        electrons   277.02611913072911     
 total        electrons   277.02611913072911     
 total        electrons   277.02611913072911     
 total        electrons   277.02611913072911     
 total        electrons   277.02611913072911     
 total        electrons   277.02611913072911     
 total        electrons   277.02611913072911     
 total        electrons   277.02611913072911     
 total        electrons   277.02611913072911     
 total        electrons   277.02611913072911     
 total        electrons   277.02611913072911     
 total        electrons   277.02611913072911     
 total        electrons   277.02611913072911     
 total        electrons   277.02611913072911     
 total        electrons   277.02611913072911     
 total        electrons   277.02611913072911     
 total        electrons   277.02611913072911     
 total        electrons   277.02611913072911     
 total        electrons   277.02611913072911     
 total        electrons   277.02611913072911     
 total        electrons   277.02611913072911     
 total        electrons   277.02611913072911     
 total        electrons   277.02611913072911     
 total        electrons   277.02611913072911     
 total        electrons   277.02611913072911     
 total        electrons   277.02611913072911     
 total        electrons   277.02611913072911     
 total        electrons   277.02611913072911     
 total        electrons   277.02611913072911     
 total        electrons   277.02611913072911     
 augmentation electrons   864.17172981569820     
 soft         electrons   0.0000000000000000     
 augmentation electrons   864.17172981569820     
 soft         electrons   0.0000000000000000     
 augmentation electrons   864.17172981569820     
 soft         electrons   0.0000000000000000     
 augmentation electrons   864.17172981569820     
 soft         electrons   0.0000000000000000     
 augmentation electrons   864.17172981569820     
 soft         electrons   0.0000000000000000     
 augmentation electrons   864.17172981569820     
 soft         electrons   0.0000000000000000     
 augmentation electrons   864.17172981569820     
 soft         electrons   0.0000000000000000     
 augmentation electrons   864.17172981569820     
 soft         electrons   0.0000000000000000     
 augmentation electrons   864.17172981569820     
 soft         electrons   0.0000000000000000     
 augmentation electrons   864.17172981569820     
 soft         electrons   0.0000000000000000     
 augmentation electrons   864.17172981569820     
 soft         electrons   0.0000000000000000     
 augmentation electrons   864.17172981569820     
 soft         electrons   0.0000000000000000     
 augmentation electrons   864.17172981569820     
 soft         electrons   0.0000000000000000     
 augmentation electrons   864.17172981569820     
 soft         electrons   0.0000000000000000     
 augmentation electrons   864.17172981569820     
 soft         electrons   0.0000000000000000     
 augmentation electrons   864.17172981569820     
 soft         electrons   0.0000000000000000     
 augmentation electrons   864.17172981569820     
 soft         electrons   0.0000000000000000     
 augmentation electrons   864.17172981569820     
 soft         electrons   0.0000000000000000     
 augmentation electrons   864.17172981569820     
 soft         electrons   0.0000000000000000     
 augmentation electrons   864.17172981569820     
 soft         electrons   0.0000000000000000     
 augmentation electrons   864.17172981569820     
 soft         electrons   0.0000000000000000     
 augmentation electrons   864.17172981569820     
 soft         electrons   0.0000000000000000     
 augmentation electrons   864.17172981569820     
 soft         electrons   0.0000000000000000     
 augmentation electrons   864.17172981569820     
 soft         electrons   0.0000000000000000     
 augmentation electrons   864.17172981569820     
 soft         electrons   0.0000000000000000     
 augmentation electrons   864.17172981569820     
 soft         electrons   0.0000000000000000     
 augmentation electrons   864.17172981569820     
 soft         electrons   0.0000000000000000     
 augmentation electrons   864.17172981569820     
 soft         electrons   0.0000000000000000     
 augmentation electrons   864.17172981569820     
 soft         electrons   0.0000000000000000     
 augmentation electrons   864.17172981569820     
 soft         electrons   0.0000000000000000     
 augmentation electrons   864.17172981569820     
 soft         electrons   0.0000000000000000     
 augmentation electrons   864.17172981569820     
 soft         electrons   0.0000000000000000     
 augmentation electrons   864.17172981569820     
 soft         electrons   0.0000000000000000     
 augmentation electrons   864.17172981569820     
 soft         electrons   0.0000000000000000     
 augmentation electrons   864.17172981569820     
 soft         electrons   0.0000000000000000     
 augmentation electrons   864.17172981569820     
 soft         electrons   0.0000000000000000     
 augmentation electrons   864.17172981569820     
 soft         electrons   0.0000000000000000     
 augmentation electrons   864.17172981569820     
 soft         electrons   0.0000000000000000     
 augmentation electrons   864.17172981569820     
 soft         electrons   0.0000000000000000     
 augmentation electrons   864.17172981569820     
 soft         electrons   0.0000000000000000     
 augmentation electrons   864.17172981569820     
 soft         electrons   0.0000000000000000     
 augmentation electrons   864.17172981569820     
 soft         electrons   0.0000000000000000     
 augmentation electrons   864.17172981569820     
 soft         electrons   0.0000000000000000     
 augmentation electrons   864.17172981569820     
 soft         electrons   0.0000000000000000     
 augmentation electrons   864.17172981569820     
 soft         electrons   0.0000000000000000     
 augmentation electrons   864.17172981569820     
 soft         electrons   0.0000000000000000     
 augmentation electrons   864.17172981569820     
 soft         electrons   0.0000000000000000     
 augmentation electrons   864.17172981569820     
 soft         electrons   0.0000000000000000     
 augmentation electrons   864.17172981569820     
 soft         electrons   0.0000000000000000     
 augmentation electrons   864.17172981569820     
 soft         electrons   0.0000000000000000     
 augmentation electrons   864.17172981569820     
 soft         electrons   0.0000000000000000     
 augmentation electrons   864.17172981569820     
 soft         electrons   0.0000000000000000     
 augmentation electrons   864.17172981569820     
 soft         electrons   0.0000000000000000     
 augmentation electrons   864.17172981569820     
 soft         electrons   0.0000000000000000     
 augmentation electrons   864.17172981569820     
 soft         electrons   0.0000000000000000     
 augmentation electrons   864.17172981569820     
 soft         electrons   0.0000000000000000     
 augmentation electrons   864.17172981569820     
 soft         electrons   0.0000000000000000     
 augmentation electrons   864.17172981569820     
 soft         electrons   0.0000000000000000     
 augmentation electrons   864.17172981569820     
 soft         electrons   0.0000000000000000     
 augmentation electrons   864.17172981569820     
 soft         electrons   0.0000000000000000     
 augmentation electrons   864.17172981569820     
 soft         electrons   0.0000000000000000     
 augmentation electrons   864.17172981569820     
 soft         electrons   0.0000000000000000     
 augmentation electrons   864.17172981569820     
 soft         electrons   0.0000000000000000     
 augmentation electrons   864.17172981569820     
 soft         electrons   0.0000000000000000     
 augmentation electrons   864.17172981569820     
 soft         electrons   0.0000000000000000     
 augmentation electrons   864.17172981569820     
 soft         electrons   0.0000000000000000     
 augmentation electrons   864.17172981569820     
 soft         electrons   0.0000000000000000     
 augmentation electrons   864.17172981569820     
 soft         electrons   0.0000000000000000     
 augmentation electrons   864.17172981569820     
 soft         electrons   0.0000000000000000     
 augmentation electrons   864.17172981569820     
 soft         electrons   0.0000000000000000     
 augmentation electrons   864.17172981569820     
 soft         electrons   0.0000000000000000     
 augmentation electrons   864.17172981569820     
 soft         electrons   0.0000000000000000     
 total        electrons   864.17172981569820     
 total        electrons   864.17172981569820     
 total        electrons   864.17172981569820     
 total        electrons   864.17172981569820     
 total        electrons   864.17172981569820     
 total        electrons   864.17172981569820     
 total        electrons   864.17172981569820     
 total        electrons   864.17172981569820     
 total        electrons   864.17172981569820     
 total        electrons   864.17172981569820     
 total        electrons   864.17172981569820     
 total        electrons   864.17172981569820     
 total        electrons   864.17172981569820     
 total        electrons   864.17172981569820     
 total        electrons   864.17172981569820     
 total        electrons   864.17172981569820     
 total        electrons   864.17172981569820     
 total        electrons   864.17172981569820     
 total        electrons   864.17172981569820     
 total        electrons   864.17172981569820     
 total        electrons   864.17172981569820     
 total        electrons   864.17172981569820     
 total        electrons   864.17172981569820     
 total        electrons   864.17172981569820     
 total        electrons   864.17172981569820     
 total        electrons   864.17172981569820     
 total        electrons   864.17172981569820     
 total        electrons   864.17172981569820     
 total        electrons   864.17172981569820     
 total        electrons   864.17172981569820     
 total        electrons   864.17172981569820     
 total        electrons   864.17172981569820     
 total        electrons   864.17172981569820     
 total        electrons   864.17172981569820     
 total        electrons   864.17172981569820     
 total        electrons   864.17172981569820     
 total        electrons   864.17172981569820     
 total        electrons   864.17172981569820     
 total        electrons   864.17172981569820     
 total        electrons   864.17172981569820     
 total        electrons   864.17172981569820     
 total        electrons   864.17172981569820     
 total        electrons   864.17172981569820     
 total        electrons   864.17172981569820     
 total        electrons   864.17172981569820     
 total        electrons   864.17172981569820     
 total        electrons   864.17172981569820     
 total        electrons   864.17172981569820     
 total        electrons   864.17172981569820     
 total        electrons   864.17172981569820     
 total        electrons   864.17172981569820     
 total        electrons   864.17172981569820     
 total        electrons   864.17172981569820     
 total        electrons   864.17172981569820     
 total        electrons   864.17172981569820     
 total        electrons   864.17172981569820     
 total        electrons   864.17172981569820     
 total        electrons   864.17172981569820     
 total        electrons   864.17172981569820     
 total        electrons   864.17172981569820     
 total        electrons   864.17172981569820     
 total        electrons   864.17172981569820     
 total        electrons   864.17172981569820     
 total        electrons   864.17172981569820     
 total        electrons   864.17172981569820     
 total        electrons   864.17172981569820     
 total        electrons   864.17172981569820     
 total        electrons   864.17172981569820     
 total        electrons   864.17172981569820     
 total        electrons   864.17172981569820     
 total        electrons   864.17172981569820     
 total        electrons   864.17172981569820     
 entering main loop
       N       E                     dE             d eps       ncg     rms          rms(c)
DAV:   1     0.301587371827E+04    0.30159E+04   -0.95011E+04  5400   0.129E+03
DAV:   2     0.523640095539E+02   -0.29635E+04   -0.27432E+04  5784   0.335E+02
DAV:   3    -0.636156387222E+03   -0.68852E+03   -0.66402E+03  7824   0.194E+02
DAV:   4    -0.699170475475E+03   -0.63014E+02   -0.60660E+02  8868   0.655E+01
DAV:   5    -0.702545801289E+03   -0.33753E+01   -0.32158E+01  9060   0.154E+01    0.142E+02
RMM:   6    -0.640838063599E+03    0.61708E+02   -0.14161E+03  6305   0.115E+02    0.711E+01
RMM:   7    -0.679612698789E+03   -0.38775E+02   -0.79490E+02  6571   0.946E+01    0.552E+01
RMM:   8    -0.589853321250E+03    0.89759E+02   -0.85797E+01  5554   0.349E+01    0.250E+01
RMM:   9    -0.592352404215E+03   -0.24991E+01   -0.56132E+01  5812   0.234E+01    0.251E+01
RMM:  10    -0.580824090104E+03    0.11528E+02   -0.17598E+01  7047   0.964E+00    0.171E+01
RMM:  11    -0.580924869486E+03   -0.10078E+00   -0.40335E+00  6116   0.468E+00    0.156E+01
RMM:  12    -0.580951302045E+03   -0.26433E-01   -0.11664E+00  6959   0.237E+00    0.142E+01
RMM:  13    -0.580002741400E+03    0.94856E+00   -0.21353E+00  5866   0.470E+00    0.102E+01
RMM:  14    -0.580907662258E+03   -0.90492E+00   -0.67194E+00  5633   0.788E+00    0.101E+01
RMM:  15    -0.579667840315E+03    0.12398E+01   -0.17141E+00  5824   0.461E+00    0.305E+00
RMM:  16    -0.579699341118E+03   -0.31501E-01   -0.75063E-01  6352   0.210E+00    0.281E+00
RMM:  17    -0.579662272272E+03    0.37069E-01   -0.21893E-01  6379   0.122E+00    0.197E+00
RMM:  18    -0.579638107319E+03    0.24165E-01   -0.14484E-01  6752   0.834E-01    0.152E+00
RMM:  19    -0.579630503750E+03    0.76036E-02   -0.12882E-01  5542   0.112E+00    0.130E+00
RMM:  20    -0.579619454265E+03    0.11049E-01   -0.12082E-01  6611   0.784E-01    0.881E-01
RMM:  21    -0.579613235735E+03    0.62185E-02   -0.20760E-02  6204   0.332E-01    0.662E-01
RMM:  22    -0.579611764910E+03    0.14708E-02   -0.86929E-03  6314   0.218E-01    0.491E-01
RMM:  23    -0.579611733891E+03    0.31019E-04   -0.11605E-02  6717   0.267E-01    0.245E-01
RMM:  24    -0.579612686894E+03   -0.95300E-03   -0.56596E-03  7422   0.120E-01    0.211E-01
RMM:  25    -0.579612771825E+03   -0.84931E-04   -0.70417E-04  6404   0.653E-02    0.155E-01
RMM:  26    -0.579613437858E+03   -0.66603E-03   -0.11864E-03  6664   0.845E-02    0.132E-01
RMM:  27    -0.579614206297E+03   -0.76844E-03   -0.12273E-03  7019   0.821E-02    0.652E-02
RMM:  28    -0.579615010654E+03   -0.80436E-03   -0.40579E-04  7025   0.349E-02    0.588E-02
RMM:  29    -0.579615555312E+03   -0.54466E-03   -0.17604E-04  5919   0.337E-02    0.600E-02
RMM:  30    -0.579615742983E+03   -0.18767E-03   -0.88191E-05  6142   0.244E-02    0.435E-02
RMM:  31    -0.579616125541E+03   -0.38256E-03   -0.10226E-04  6573   0.182E-02    0.236E-02
RMM:  32    -0.579616242738E+03   -0.11720E-03   -0.38924E-05  6037   0.124E-02    0.232E-02
RMM:  33    -0.579616347761E+03   -0.10502E-03   -0.21717E-05  4864   0.134E-02    0.914E-03
RMM:  34    -0.579616445847E+03   -0.98086E-04   -0.32433E-05  5782   0.883E-03    0.919E-03
RMM:  35    -0.579616521398E+03   -0.75551E-04   -0.74082E-06  3984   0.624E-03    0.857E-03
RMM:  36    -0.579616641487E+03   -0.12009E-03   -0.10415E-05  4497   0.811E-03    0.570E-03
RMM:  37    -0.579616732100E+03   -0.90613E-04   -0.79509E-06  4050   0.571E-03    0.318E-03
RMM:  38    -0.579616750675E+03   -0.18575E-04   -0.14750E-06  3425   0.349E-03    0.180E-03
RMM:  39    -0.579616779235E+03   -0.28560E-04   -0.24051E-06  3509   0.306E-03    0.228E-03
RMM:  40    -0.579616797541E+03   -0.18306E-04   -0.20940E-06  3483   0.324E-03    0.165E-03
RMM:  41    -0.579616801276E+03   -0.37344E-05   -0.56924E-07  3126   0.222E-03    0.714E-04
RMM:  42    -0.579616802765E+03   -0.14896E-05   -0.25475E-07  2361   0.114E-03    0.452E-04
RMM:  43    -0.579616805510E+03   -0.27444E-05   -0.25633E-07  2391   0.110E-03    0.495E-04
RMM:  44    -0.579616806640E+03   -0.11304E-05   -0.16029E-07  2121   0.941E-04    0.177E-04
RMM:  45    -0.579616807146E+03   -0.50623E-06   -0.11210E-07  1925   0.793E-04
   1 F= -.57961681E+03 E0= -.57961991E+03  d E =-.579617E+03
 curvature:   0.00 expect dE= 0.000E+00 dE for cont linesearch  0.000E+00
 trial: gam= 0.00000 g(F)=  0.150E-02 g(S)=  0.000E+00 ort = 0.000E+00 (trialstep = 0.100E+01)
 search vector abs. value=  0.150E-02
 bond charge predicted
       N       E                     dE             d eps       ncg     rms          rms(c)
DAV:   1    -0.579618135730E+03   -0.13291E-02   -0.22948E-02  5988   0.260E-01    0.611E-02
RMM:   2    -0.579618269452E+03   -0.13372E-03   -0.92187E-04  5942   0.868E-02    0.117E-01
RMM:   3    -0.579618152106E+03    0.11735E-03   -0.24369E-04  5687   0.539E-02    0.533E-02
RMM:   4    -0.579618177678E+03   -0.25572E-04   -0.12314E-04  6592   0.253E-02    0.623E-02
RMM:   5    -0.579618219422E+03   -0.41743E-04   -0.14744E-04  6014   0.362E-02    0.840E-02
RMM:   6    -0.579618145501E+03    0.73921E-04   -0.10868E-04  5511   0.350E-02    0.417E-02
RMM:   7    -0.579618123658E+03    0.21843E-04   -0.33289E-05  5403   0.214E-02    0.108E-02
RMM:   8    -0.579618123584E+03    0.73911E-07   -0.10845E-05  4709   0.834E-03    0.803E-03
RMM:   9    -0.579618123127E+03    0.45690E-06   -0.31544E-06  3692   0.601E-03
   2 F= -.57961812E+03 E0= -.57962122E+03  d E =-.131598E-02
 ZBRENT: can't locate minimum, use default step
 trial-energy change:   -0.001316  1 .order   -0.001317   -0.001496   -0.001137
 step:   4.0000(harm=  4.1683)  dis= 0.00676  next Energy=  -579.619926 (dE=-0.312E-02)
 bond charge predicted
       N       E                     dE             d eps       ncg     rms          rms(c)
DAV:   1    -0.579620096267E+03   -0.19727E-02   -0.20594E-01  5760   0.777E-01    0.183E-01
RMM:   2    -0.579621503842E+03   -0.14076E-02   -0.83956E-03  5769   0.278E-01    0.378E-01
RMM:   3    -0.579620275070E+03    0.12288E-02   -0.20972E-03  5673   0.165E-01    0.160E-01
RMM:   4    -0.579620503409E+03   -0.22834E-03   -0.10208E-03  6634   0.739E-02    0.193E-01
RMM:   5    -0.579620643755E+03   -0.14035E-03   -0.12429E-03  5984   0.107E-01    0.223E-01
RMM:   6    -0.579620186602E+03    0.45715E-03   -0.94473E-04  5555   0.103E-01    0.124E-01
RMM:   7    -0.579619987387E+03    0.19921E-03   -0.29023E-04  5587   0.643E-02    0.319E-02
RMM:   8    -0.579619986784E+03    0.60311E-06   -0.94745E-05  6295   0.254E-02    0.246E-02
RMM:   9    -0.579619982684E+03    0.41004E-05   -0.31395E-05  5348   0.153E-02    0.145E-02
RMM:  10    -0.579619981011E+03    0.16729E-05   -0.12878E-05  4431   0.967E-03    0.814E-03
RMM:  11    -0.579619980842E+03    0.16889E-06   -0.44498E-06  3924   0.612E-03
   3 F= -.57961998E+03 E0= -.57962306E+03  d E =-.317370E-02
 curvature:  -2.08 expect dE=-0.226E-03 dE for cont linesearch -0.166E-04
 ZBRENT: extrapolating
 opt :   4.3188  next Energy=  -579.619998 (dE=-0.319E-02)
 bond charge predicted
       N       E                     dE             d eps       ncg     rms          rms(c)
DAV:   1    -0.579620000431E+03   -0.19421E-04   -0.23278E-03  6264   0.837E-02    0.200E-02
RMM:   2    -0.579620017841E+03   -0.17409E-04   -0.11307E-04  5516   0.360E-02    0.401E-02
RMM:   3    -0.579620004218E+03    0.13623E-04   -0.29615E-05  5181   0.198E-02    0.176E-02
RMM:   4    -0.579620006177E+03   -0.19588E-05   -0.11442E-05  4901   0.917E-03    0.202E-02
RMM:   5    -0.579620008286E+03   -0.21093E-05   -0.11507E-05  4654   0.112E-02    0.240E-02
RMM:   6    -0.579620003083E+03    0.52032E-05   -0.95509E-06  4284   0.112E-02    0.135E-02
RMM:   7    -0.579620000970E+03    0.21123E-05   -0.37892E-06  3877   0.837E-03    0.432E-03
RMM:   8    -0.579620001005E+03   -0.34934E-07   -0.10151E-06  3222   0.403E-03
   4 F= -.57962000E+03 E0= -.57962308E+03  d E =-.319386E-02
 curvature:  -2.18 expect dE=-0.250E-03 dE for cont linesearch -0.204E-06
 trial: gam= 0.06866 g(F)=  0.115E-03 g(S)=  0.000E+00 ort = 0.118E-04 (trialstep = 0.166E+01)
 search vector abs. value=  0.123E-03
 bond charge predicted
       N       E                     dE             d eps       ncg     rms          rms(c)
DAV:   1    -0.579620159130E+03   -0.15816E-03   -0.50037E-03  5736   0.124E-01    0.194E-02
RMM:   2    -0.579620194432E+03   -0.35302E-04   -0.15127E-04  5377   0.432E-02    0.548E-02
RMM:   3    -0.579620167187E+03    0.27245E-04   -0.31616E-05  5321   0.208E-02    0.179E-02
RMM:   4    -0.579620167791E+03   -0.60484E-06   -0.10871E-05  4524   0.890E-03    0.197E-02
RMM:   5    -0.579620167111E+03    0.68093E-06   -0.10109E-05  4472   0.110E-02    0.173E-02
RMM:   6    -0.579620166278E+03    0.83210E-06   -0.90208E-06  4233   0.106E-02
   5 F= -.57962017E+03 E0= -.57962327E+03  d E =-.165273E-03
 trial-energy change:   -0.000165  1 .order   -0.000163   -0.000192   -0.000134
 step:   5.5262(harm=  5.5262)  dis= 0.00000  next Energy=  -579.620320 (dE=-0.319E-03)
 bond charge predicted
       N       E                     dE             d eps       ncg     rms          rms(c)
DAV:   1    -0.579620289681E+03   -0.12257E-03   -0.26972E-02  5700   0.288E-01    0.456E-02
RMM:   2    -0.579620488099E+03   -0.19842E-03   -0.80805E-04  5504   0.991E-02    0.129E-01
RMM:   3    -0.579620336222E+03    0.15188E-03   -0.17154E-04  5858   0.475E-02    0.440E-02
RMM:   4    -0.579620334499E+03    0.17229E-05   -0.66620E-05  5973   0.214E-02    0.439E-02
RMM:   5    -0.579620332623E+03    0.18762E-05   -0.56710E-05  5730   0.229E-02    0.402E-02
RMM:   6    -0.579620328992E+03    0.36307E-05   -0.52750E-05  5399   0.238E-02    0.334E-02
RMM:   7    -0.579620315556E+03    0.13436E-04   -0.23020E-05  5103   0.183E-02    0.102E-02
RMM:   8    -0.579620316044E+03   -0.48748E-06   -0.87924E-06  4396   0.961E-03
   6 F= -.57962032E+03 E0= -.57962344E+03  d E =-.315038E-03
 curvature:  -2.95 expect dE=-0.710E-06 dE for cont linesearch -0.232E-06
 trial: gam= 0.00000 g(F)=  0.240E-06 g(S)=  0.000E+00 ort =-0.311E-05 (trialstep = 0.244E+01)
 search vector abs. value=  0.241E-06
 reached required accuracy - stopping structural energy minimisation
 augmentation electrons   35.541220785108031     
 soft         electrons   241.55426218422380     
 augmentation electrons   35.541220785108031     
 soft         electrons   241.55426218422380     
 augmentation electrons   35.541220785108031     
 soft         electrons   241.55426218422380     
 augmentation electrons   35.541220785108031     
 soft         electrons   241.55426218422380     
 augmentation electrons   35.541220785108031     
 soft         electrons   241.55426218422380     
 augmentation electrons   35.541220785108031     
 soft         electrons   241.55426218422380     
 augmentation electrons   35.541220785108031     
 soft         electrons   241.55426218422380     
 augmentation electrons   35.541220785108031     
 soft         electrons   241.55426218422380     
 augmentation electrons   35.541220785108031     
 soft         electrons   241.55426218422380     
 augmentation electrons   35.541220785108031     
 soft         electrons   241.55426218422380     
 augmentation electrons   35.541220785108031     
 soft         electrons   241.55426218422380     
 augmentation electrons   35.541220785108031     
 soft         electrons   241.55426218422380     
 augmentation electrons   35.541220785108031     
 soft         electrons   241.55426218422380     
 augmentation electrons   35.541220785108031     
 soft         electrons   241.55426218422380     
 augmentation electrons   35.541220785108031     
 soft         electrons   241.55426218422380     
 augmentation electrons   35.541220785108031     
 soft         electrons   241.55426218422380     
 augmentation electrons   35.541220785108031     
 soft         electrons   241.55426218422380     
 augmentation electrons   35.541220785108031     
 soft         electrons   241.55426218422380     
 augmentation electrons   35.541220785108031     
 soft         electrons   241.55426218422380     
 augmentation electrons   35.541220785108031     
 soft         electrons   241.55426218422380     
 augmentation electrons   35.541220785108031     
 soft         electrons   241.55426218422380     
 augmentation electrons   35.541220785108031     
 soft         electrons   241.55426218422380     
 augmentation electrons   35.541220785108031     
 soft         electrons   241.55426218422380     
 augmentation electrons   35.541220785108031     
 soft         electrons   241.55426218422380     
 augmentation electrons   35.541220785108031     
 soft         electrons   241.55426218422380     
 augmentation electrons   35.541220785108031     
 soft         electrons   241.55426218422380     
 augmentation electrons   35.541220785108031     
 soft         electrons   241.55426218422380     
 augmentation electrons   35.541220785108031     
 soft         electrons   241.55426218422380     
 augmentation electrons   35.541220785108031     
 soft         electrons   241.55426218422380     
 augmentation electrons   35.541220785108031     
 soft         electrons   241.55426218422380     
 augmentation electrons   35.541220785108031     
 soft         electrons   241.55426218422380     
 augmentation electrons   35.541220785108031     
 soft         electrons   241.55426218422380     
 augmentation electrons   35.541220785108031     
 soft         electrons   241.55426218422380     
 augmentation electrons   35.541220785108031     
 soft         electrons   241.55426218422380     
 augmentation electrons   35.541220785108031     
 soft         electrons   241.55426218422380     
 augmentation electrons   35.541220785108031     
 soft         electrons   241.55426218422380     
 augmentation electrons   35.541220785108031     
 soft         electrons   241.55426218422380     
 augmentation electrons   35.541220785108031     
 soft         electrons   241.55426218422380     
 augmentation electrons   35.541220785108031     
 soft         electrons   241.55426218422380     
 augmentation electrons   35.541220785108031     
 soft         electrons   241.55426218422380     
 augmentation electrons   35.541220785108031     
 soft         electrons   241.55426218422380     
 augmentation electrons   35.541220785108031     
 soft         electrons   241.55426218422380     
 augmentation electrons   35.541220785108031     
 soft         electrons   241.55426218422380     
 augmentation electrons   35.541220785108031     
 soft         electrons   241.55426218422380     
 augmentation electrons   35.541220785108031     
 soft         electrons   241.55426218422380     
 augmentation electrons   35.541220785108031     
 soft         electrons   241.55426218422380     
 augmentation electrons   35.541220785108031     
 soft         electrons   241.55426218422380     
 augmentation electrons   35.541220785108031     
 soft         electrons   241.55426218422380     
 augmentation electrons   35.541220785108031     
 soft         electrons   241.55426218422380     
 augmentation electrons   35.541220785108031     
 soft         electrons   241.55426218422380     
 augmentation electrons   35.541220785108031     
 soft         electrons   241.55426218422380     
 augmentation electrons   35.541220785108031     
 soft         electrons   241.55426218422380     
 augmentation electrons   35.541220785108031     
 soft         electrons   241.55426218422380     
 augmentation electrons   35.541220785108031     
 soft         electrons   241.55426218422380     
 augmentation electrons   35.541220785108031     
 soft         electrons   241.55426218422380     
 augmentation electrons   35.541220785108031     
 soft         electrons   241.55426218422380     
 augmentation electrons   35.541220785108031     
 soft         electrons   241.55426218422380     
 augmentation electrons   35.541220785108031     
 soft         electrons   241.55426218422380     
 augmentation electrons   35.541220785108031     
 soft         electrons   241.55426218422380     
 augmentation electrons   35.541220785108031     
 soft         electrons   241.55426218422380     
 augmentation electrons   35.541220785108031     
 soft         electrons   241.55426218422380     
 augmentation electrons   35.541220785108031     
 soft         electrons   241.55426218422380     
 augmentation electrons   35.541220785108031     
 soft         electrons   241.55426218422380     
 augmentation electrons   35.541220785108031     
 soft         electrons   241.55426218422380     
 augmentation electrons   35.541220785108031     
 soft         electrons   241.55426218422380     
 augmentation electrons   35.541220785108031     
 soft         electrons   241.55426218422380     
 augmentation electrons   35.541220785108031     
 soft         electrons   241.55426218422380     
 augmentation electrons   35.541220785108031     
 soft         electrons   241.55426218422380     
 augmentation electrons   35.541220785108031     
 soft         electrons   241.55426218422380     
 augmentation electrons   35.541220785108031     
 soft         electrons   241.55426218422380     
 augmentation electrons   35.541220785108031     
 soft         electrons   241.55426218422380     
 augmentation electrons   35.541220785108031     
 soft         electrons   241.55426218422380     
 total        electrons   277.09548296933184     
 total        electrons   277.09548296933184     
 total        electrons   277.09548296933184     
 total        electrons   277.09548296933184     
 total        electrons   277.09548296933184     
 total        electrons   277.09548296933184     
 total        electrons   277.09548296933184     
 total        electrons   277.09548296933184     
 total        electrons   277.09548296933184     
 total        electrons   277.09548296933184     
 total        electrons   277.09548296933184     
 total        electrons   277.09548296933184     
 total        electrons   277.09548296933184     
 total        electrons   277.09548296933184     
 total        electrons   277.09548296933184     
 total        electrons   277.09548296933184     
 total        electrons   277.09548296933184     
 total        electrons   277.09548296933184     
 total        electrons   277.09548296933184     
 total        electrons   277.09548296933184     
 total        electrons   277.09548296933184     
 total        electrons   277.09548296933184     
 total        electrons   277.09548296933184     
 total        electrons   277.09548296933184     
 total        electrons   277.09548296933184     
 total        electrons   277.09548296933184     
 total        electrons   277.09548296933184     
 total        electrons   277.09548296933184     
 total        electrons   277.09548296933184     
 total        electrons   277.09548296933184     
 total        electrons   277.09548296933184     
 total        electrons   277.09548296933184     
 total        electrons   277.09548296933184     
 total        electrons   277.09548296933184     
 total        electrons   277.09548296933184     
 total        electrons   277.09548296933184     
 total        electrons   277.09548296933184     
 total        electrons   277.09548296933184     
 total        electrons   277.09548296933184     
 total        electrons   277.09548296933184     
 total        electrons   277.09548296933184     
 total        electrons   277.09548296933184     
 total        electrons   277.09548296933184     
 total        electrons   277.09548296933184     
 total        electrons   277.09548296933184     
 total        electrons   277.09548296933184     
 total        electrons   277.09548296933184     
 total        electrons   277.09548296933184     
 total        electrons   277.09548296933184     
 total        electrons   277.09548296933184     
 total        electrons   277.09548296933184     
 total        electrons   277.09548296933184     
 total        electrons   277.09548296933184     
 total        electrons   277.09548296933184     
 total        electrons   277.09548296933184     
 total        electrons   277.09548296933184     
 total        electrons   277.09548296933184     
 total        electrons   277.09548296933184     
 total        electrons   277.09548296933184     
 total        electrons   277.09548296933184     
 total        electrons   277.09548296933184     
 total        electrons   277.09548296933184     
 total        electrons   277.09548296933184     
 total        electrons   277.09548296933184     
 total        electrons   277.09548296933184     
 total        electrons   277.09548296933184     
 total        electrons   277.09548296933184     
 total        electrons   277.09548296933184     
 total        electrons   277.09548296933184     
 total        electrons   277.09548296933184     
 total        electrons   277.09548296933184     
 total        electrons   277.09548296933184     
Note: The following floating-point exceptions are signalling: IEEE_OVERFLOW_FLAG
Note: The following floating-point exceptions are signalling: IEEE_OVERFLOW_FLAG
Note: The following floating-point exceptions are signalling: IEEE_OVERFLOW_FLAG
Note: The following floating-point exceptions are signalling: IEEE_OVERFLOW_FLAG
Note: The following floating-point exceptions are signalling: IEEE_OVERFLOW_FLAG
Note: The following floating-point exceptions are signalling: IEEE_OVERFLOW_FLAG
Note: The following floating-point exceptions are signalling: IEEE_OVERFLOW_FLAG
Note: The following floating-point exceptions are signalling: IEEE_OVERFLOW_FLAG
Note: The following floating-point exceptions are signalling: IEEE_OVERFLOW_FLAG
Note: The following floating-point exceptions are signalling: IEEE_OVERFLOW_FLAG
Note: The following floating-point exceptions are signalling: IEEE_OVERFLOW_FLAG
Note: The following floating-point exceptions are signalling: IEEE_OVERFLOW_FLAG
Note: The following floating-point exceptions are signalling: IEEE_OVERFLOW_FLAG
Note: The following floating-point exceptions are signalling: IEEE_OVERFLOW_FLAG
Note: The following floating-point exceptions are signalling: IEEE_OVERFLOW_FLAG
Note: The following floating-point exceptions are signalling: IEEE_OVERFLOW_FLAG
Note: The following floating-point exceptions are signalling: IEEE_OVERFLOW_FLAG
Note: The following floating-point exceptions are signalling: IEEE_OVERFLOW_FLAG
Note: The following floating-point exceptions are signalling: IEEE_OVERFLOW_FLAG
Note: The following floating-point exceptions are signalling: IEEE_OVERFLOW_FLAG
Note: The following floating-point exceptions are signalling: IEEE_OVERFLOW_FLAG
Note: The following floating-point exceptions are signalling: IEEE_OVERFLOW_FLAG
Note: The following floating-point exceptions are signalling: IEEE_OVERFLOW_FLAG
Note: The following floating-point exceptions are signalling: IEEE_OVERFLOW_FLAG
Note: The following floating-point exceptions are signalling: IEEE_OVERFLOW_FLAG
Note: The following floating-point exceptions are signalling: IEEE_OVERFLOW_FLAG
Note: The following floating-point exceptions are signalling: IEEE_OVERFLOW_FLAG
Note: The following floating-point exceptions are signalling: IEEE_OVERFLOW_FLAG
Note: The following floating-point exceptions are signalling: IEEE_OVERFLOW_FLAG
Note: The following floating-point exceptions are signalling: IEEE_OVERFLOW_FLAG
Note: The following floating-point exceptions are signalling: IEEE_OVERFLOW_FLAG
Note: The following floating-point exceptions are signalling: IEEE_OVERFLOW_FLAG
Note: The following floating-point exceptions are signalling: IEEE_OVERFLOW_FLAG
Note: The following floating-point exceptions are signalling: IEEE_OVERFLOW_FLAG
Note: The following floating-point exceptions are signalling: IEEE_OVERFLOW_FLAG
Note: The following floating-point exceptions are signalling: IEEE_OVERFLOW_FLAG
Note: The following floating-point exceptions are signalling: IEEE_OVERFLOW_FLAG
Note: The following floating-point exceptions are signalling: IEEE_OVERFLOW_FLAG
Note: The following floating-point exceptions are signalling: IEEE_OVERFLOW_FLAG
Note: The following floating-point exceptions are signalling: IEEE_OVERFLOW_FLAG
Note: The following floating-point exceptions are signalling: IEEE_OVERFLOW_FLAG
Note: The following floating-point exceptions are signalling: IEEE_OVERFLOW_FLAG
Note: The following floating-point exceptions are signalling: IEEE_OVERFLOW_FLAG
Note: The following floating-point exceptions are signalling: IEEE_OVERFLOW_FLAG
Note: The following floating-point exceptions are signalling: IEEE_OVERFLOW_FLAG
Note: The following floating-point exceptions are signalling: IEEE_OVERFLOW_FLAG
Note: The following floating-point exceptions are signalling: IEEE_OVERFLOW_FLAG
Note: The following floating-point exceptions are signalling: IEEE_OVERFLOW_FLAG
Note: The following floating-point exceptions are signalling: IEEE_OVERFLOW_FLAG
Note: The following floating-point exceptions are signalling: IEEE_OVERFLOW_FLAG
Note: The following floating-point exceptions are signalling: IEEE_OVERFLOW_FLAG
Note: The following floating-point exceptions are signalling: IEEE_OVERFLOW_FLAG
Note: The following floating-point exceptions are signalling: IEEE_OVERFLOW_FLAG
Note: The following floating-point exceptions are signalling: IEEE_OVERFLOW_FLAG
Note: The following floating-point exceptions are signalling: IEEE_OVERFLOW_FLAG
Note: The following floating-point exceptions are signalling: IEEE_OVERFLOW_FLAG
Note: The following floating-point exceptions are signalling: IEEE_OVERFLOW_FLAG
Note: The following floating-point exceptions are signalling: IEEE_OVERFLOW_FLAG
Note: The following floating-point exceptions are signalling: IEEE_OVERFLOW_FLAG
Note: The following floating-point exceptions are signalling: IEEE_OVERFLOW_FLAG
Note: The following floating-point exceptions are signalling: IEEE_OVERFLOW_FLAG
Note: The following floating-point exceptions are signalling: IEEE_OVERFLOW_FLAG
Note: The following floating-point exceptions are signalling: IEEE_OVERFLOW_FLAG
Note: The following floating-point exceptions are signalling: IEEE_OVERFLOW_FLAG
Note: The following floating-point exceptions are signalling: IEEE_OVERFLOW_FLAG
Note: The following floating-point exceptions are signalling: IEEE_OVERFLOW_FLAG
Note: The following floating-point exceptions are signalling: IEEE_OVERFLOW_FLAG
Note: The following floating-point exceptions are signalling: IEEE_OVERFLOW_FLAG
Note: The following floating-point exceptions are signalling: IEEE_OVERFLOW_FLAG
Note: The following floating-point exceptions are signalling: IEEE_OVERFLOW_FLAG
Note: The following floating-point exceptions are signalling: IEEE_OVERFLOW_FLAG
Note: The following floating-point exceptions are signalling: IEEE_OVERFLOW_FLAG
