   73   73    1    1
  0.2139262E+02  0.1053953E-08  0.6141200E-09  0.2412750E-08  0.5000000E-15
   1.0000000000000000E-004
  CAR 
 Name                                    
    268     23    176

  0.3742002E-15  0.3742002E-15  0.1262379E-14  0.2222222E-01
    1      -13.836730   1.000000
    2      -12.844631   1.000000
    3      -12.698475   1.000000
    4      -12.346664   1.000000
    5      -11.725414   1.000000
    6      -11.595527   1.000000
    7      -11.507682   1.000000
    8      -11.490377   1.000000
    9      -11.324598   1.000000
   10      -11.090354   1.000000
   11      -10.964236   1.000000
   12      -10.958367   1.000000
   13      -10.722541   1.000000
   14      -10.366597   1.000000
   15      -10.274164   1.000000
   16      -10.149950   1.000000
   17      -10.053269   1.000000
   18       -9.984541   1.000000
   19       -9.740641   1.000000
   20       -9.577364   1.000000
   21       -9.516898   1.000000
   22       -9.402431   1.000000
   23       -9.337173   1.000000
   24       -8.866477   1.000000
   25       -8.851600   1.000000
   26       -8.709097   1.000000
   27       -8.530716   1.000000
   28       -8.452687   1.000000
   29       -8.214534   1.000000
   30       -8.019687   1.000000
   31       -7.921595   1.000000
   32       -7.761707   1.000000
   33       -7.399339   1.000000
   34       -7.367926   1.000000
   35       -7.260532   1.000000
   36       -7.219474   1.000000
   37       -7.023512   1.000000
   38       -6.830218   1.000000
   39       -6.818074   1.000000
   40       -6.780265   1.000000
   41       -6.646938   1.000000
   42       -6.609642   1.000000
   43       -6.524430   1.000000
   44       -6.389027   1.000000
   45       -6.263034   1.000000
   46       -6.194610   1.000000
   47       -6.068503   1.000000
   48       -5.919690   1.000000
   49       -5.888157   1.000000
   50       -5.869544   1.000000
   51       -5.734836   1.000000
   52       -5.683389   1.000000
   53       -5.606013   1.000000
   54       -5.556615   1.000000
   55       -5.511137   1.000000
   56       -5.435683   1.000000
   57       -5.304141   1.000000
   58       -5.295205   1.000000
   59       -5.202541   1.000000
   60       -5.129018   1.000000
   61       -5.038090   1.000000
   62       -5.020136   1.000000
   63       -4.888225   1.000000
   64       -4.855406   1.000000
   65       -4.723469   1.000000
   66       -4.580263   1.000000
   67       -4.534275   1.000000
   68       -4.496261   1.000000
   69       -4.401736   1.000000
   70       -4.362018   1.000000
   71       -4.347073   1.000000
   72       -4.285183   1.000000
   73       -4.223294   1.000000
   74       -4.118804   1.000000
   75       -4.075059   1.000000
   76       -4.032139   1.000000
   77       -3.990266   1.000000
   78       -3.929913   1.000000
   79       -3.798994   1.000000
   80       -3.732477   1.000000
   81       -3.664663   1.000000
   82       -3.581859   1.000000
   83       -3.576983   1.000000
   84       -3.464545   1.000000
   85       -3.449719   1.000000
   86       -3.293647   1.000000
   87       -3.223500   1.000000
   88       -3.210179   1.000000
   89       -3.169057   1.000000
   90       -3.142375   1.000000
   91       -3.093256   1.000000
   92       -3.053964   1.000000
   93       -3.013094   1.000000
   94       -2.896409   1.000000
   95       -2.805433   1.000000
   96       -2.755473   1.000000
   97       -2.710569   1.000000
   98       -2.609706   1.000000
   99       -2.578326   1.000000
  100       -2.501829   1.000000
  101       -2.415179   1.000000
  102       -2.316892   1.000000
  103       -2.265969   1.000000
  104       -2.216476   1.000000
  105       -2.201165   1.000000
  106       -2.033030   1.000000
  107       -2.019391   1.000000
  108       -1.994585   1.000000
  109       -1.994401   1.000000
  110       -1.854221   1.000000
  111       -1.848611   1.000000
  112       -1.696336   1.000000
  113       -1.631236   1.000000
  114       -1.585289   1.000000
  115       -1.327899   1.000000
  116       -1.212778   1.000000
  117       -1.182185   1.000000
  118       -1.164440   1.000000
  119       -0.985138   1.000000
  120       -0.890718   1.000000
  121       -0.800587   1.000000
  122       -0.750168   1.000000
  123       -0.669607   1.000000
  124       -0.525225   1.000000
  125       -0.366045   1.000035
  126       -0.334050   1.000089
  127       -0.200359   1.002301
  128       -0.170505   1.004123
  129       -0.068758   1.019358
  130       -0.029067   1.028399
  131        0.086378   1.012400
  132        0.148469   0.917946
  133        0.186734   0.812977
  134        0.233099   0.643409
  135        0.279158   0.450979
  136        0.308140   0.332116
  137        0.371768   0.118544
  138        0.440776  -0.005083
  139        0.500622  -0.034869
  140        0.564361  -0.028357
  141        0.642063  -0.011802
  142        0.752424  -0.001613
  143        0.783740  -0.000800
  144        0.797768  -0.000574
  145        0.892732  -0.000045
  146        0.978710  -0.000003
  147        1.072873  -0.000000
  148        1.141175  -0.000000
  149        1.204519  -0.000000
  150        1.243367  -0.000000
  151        1.297399  -0.000000
  152        1.324553  -0.000000
  153        1.344596  -0.000000
  154        1.359638  -0.000000
  155        1.410121  -0.000000
  156        1.461322  -0.000000
  157        1.489371  -0.000000
  158        1.510102  -0.000000
  159        1.558384  -0.000000
  160        1.570117  -0.000000
  161        1.593633  -0.000000
  162        1.636678  -0.000000
  163        1.667185  -0.000000
  164        1.736121  -0.000000
  165        1.743012  -0.000000
  166        1.802609  -0.000000
  167        1.868963  -0.000000
  168        1.876685  -0.000000
  169        1.987169  -0.000000
  170        2.007767  -0.000000
  171        2.148379  -0.000000
  172        2.190302  -0.000000
  173        2.430337  -0.000000
  174        2.625059  -0.000000
  175        2.657198  -0.000000
  176        2.861297  -0.000000

  0.2000000E+00  0.3742002E-15  0.1262379E-14  0.4444444E-01
    1      -13.796014   1.000000
    2      -13.083971   1.000000
    3      -12.603016   1.000000
    4      -12.088886   1.000000
    5      -11.897956   1.000000
    6      -11.716647   1.000000
    7      -11.538066   1.000000
    8      -11.291408   1.000000
    9      -11.185095   1.000000
   10      -11.100320   1.000000
   11      -10.932864   1.000000
   12      -10.860874   1.000000
   13      -10.711638   1.000000
   14      -10.558122   1.000000
   15      -10.417443   1.000000
   16      -10.217731   1.000000
   17      -10.123706   1.000000
   18      -10.059212   1.000000
   19       -9.706599   1.000000
   20       -9.698654   1.000000
   21       -9.406019   1.000000
   22       -9.321901   1.000000
   23       -9.242899   1.000000
   24       -8.964695   1.000000
   25       -8.820630   1.000000
   26       -8.785612   1.000000
   27       -8.366714   1.000000
   28       -8.237438   1.000000
   29       -8.092474   1.000000
   30       -7.978503   1.000000
   31       -7.923747   1.000000
   32       -7.860812   1.000000
   33       -7.435224   1.000000
   34       -7.397764   1.000000
   35       -7.304564   1.000000
   36       -7.218442   1.000000
   37       -7.135113   1.000000
   38       -6.964788   1.000000
   39       -6.894188   1.000000
   40       -6.751919   1.000000
   41       -6.686887   1.000000
   42       -6.594277   1.000000
   43       -6.495986   1.000000
   44       -6.447814   1.000000
   45       -6.349233   1.000000
   46       -6.107215   1.000000
   47       -6.028313   1.000000
   48       -5.888582   1.000000
   49       -5.849938   1.000000
   50       -5.809060   1.000000
   51       -5.772860   1.000000
   52       -5.714856   1.000000
   53       -5.616505   1.000000
   54       -5.564869   1.000000
   55       -5.471680   1.000000
   56       -5.362082   1.000000
   57       -5.283900   1.000000
   58       -5.261318   1.000000
   59       -5.195113   1.000000
   60       -5.099129   1.000000
   61       -5.074663   1.000000
   62       -4.965451   1.000000
   63       -4.922419   1.000000
   64       -4.848388   1.000000
   65       -4.697369   1.000000
   66       -4.605854   1.000000
   67       -4.544730   1.000000
   68       -4.494671   1.000000
   69       -4.420477   1.000000
   70       -4.326365   1.000000
   71       -4.305797   1.000000
   72       -4.240513   1.000000
   73       -4.228074   1.000000
   74       -4.192182   1.000000
   75       -4.104639   1.000000
   76       -4.016397   1.000000
   77       -3.969195   1.000000
   78       -3.909738   1.000000
   79       -3.768345   1.000000
   80       -3.716010   1.000000
   81       -3.704124   1.000000
   82       -3.652417   1.000000
   83       -3.596446   1.000000
   84       -3.479292   1.000000
   85       -3.379875   1.000000
   86       -3.304171   1.000000
   87       -3.281149   1.000000
   88       -3.257928   1.000000
   89       -3.194220   1.000000
   90       -3.153245   1.000000
   91       -3.115140   1.000000
   92       -3.004822   1.000000
   93       -2.981092   1.000000
   94       -2.881667   1.000000
   95       -2.845596   1.000000
   96       -2.829539   1.000000
   97       -2.696521   1.000000
   98       -2.620168   1.000000
   99       -2.590976   1.000000
  100       -2.452277   1.000000
  101       -2.392938   1.000000
  102       -2.383730   1.000000
  103       -2.290860   1.000000
  104       -2.175961   1.000000
  105       -2.122421   1.000000
  106       -2.048758   1.000000
  107       -2.020673   1.000000
  108       -1.925209   1.000000
  109       -1.900129   1.000000
  110       -1.828896   1.000000
  111       -1.818963   1.000000
  112       -1.695942   1.000000
  113       -1.652599   1.000000
  114       -1.526237   1.000000
  115       -1.351573   1.000000
  116       -1.228172   1.000000
  117       -1.209514   1.000000
  118       -1.184231   1.000000
  119       -1.035710   1.000000
  120       -0.938760   1.000000
  121       -0.859624   1.000000
  122       -0.790603   1.000000
  123       -0.654638   1.000000
  124       -0.574858   1.000000
  125       -0.365280   1.000036
  126       -0.305694   1.000193
  127       -0.216940   1.001626
  128       -0.201885   1.002230
  129       -0.124431   1.009081
  130       -0.099115   1.013183
  131        0.012248   1.035073
  132        0.117583   0.976080
  133        0.166819   0.872104
  134        0.228700   0.661007
  135        0.333427   0.237313
  136        0.379929   0.097822
  137        0.393088   0.067950
  138        0.461226  -0.021526
  139        0.522696  -0.035084
  140        0.590206  -0.022453
  141        0.618154  -0.016301
  142        0.731568  -0.002490
  143        0.827596  -0.000273
  144        0.853517  -0.000138
  145        0.946760  -0.000009
  146        1.019953  -0.000001
  147        1.074894  -0.000000
  148        1.159854  -0.000000
  149        1.217333  -0.000000
  150        1.244832  -0.000000
  151        1.275763  -0.000000
  152        1.329626  -0.000000
  153        1.348586  -0.000000
  154        1.405880  -0.000000
  155        1.437167  -0.000000
  156        1.476882  -0.000000
  157        1.501214  -0.000000
  158        1.536958  -0.000000
  159        1.557322  -0.000000
  160        1.584525  -0.000000
  161        1.631794  -0.000000
  162        1.644884  -0.000000
  163        1.696751  -0.000000
  164        1.718594  -0.000000
  165        1.755303  -0.000000
  166        1.815104  -0.000000
  167        1.867803  -0.000000
  168        1.908309  -0.000000
  169        1.964206  -0.000000
  170        2.082643  -0.000000
  171        2.142672  -0.000000
  172        2.241974  -0.000000
  173        2.297765  -0.000000
  174        2.436044  -0.000000
  175        2.517112  -0.000000
  176        2.822088  -0.000000

  0.4000000E+00  0.3742002E-15  0.1262379E-14  0.4444444E-01
    1      -13.693735   1.000000
    2      -13.340274   1.000000
    3      -12.493082   1.000000
    4      -12.156034   1.000000
    5      -11.697883   1.000000
    6      -11.603865   1.000000
    7      -11.588965   1.000000
    8      -11.252494   1.000000
    9      -11.114280   1.000000
   10      -11.074886   1.000000
   11      -10.955323   1.000000
   12      -10.866482   1.000000
   13      -10.698436   1.000000
   14      -10.589638   1.000000
   15      -10.509386   1.000000
   16      -10.468235   1.000000
   17      -10.085058   1.000000
   18      -10.032339   1.000000
   19       -9.922170   1.000000
   20       -9.880087   1.000000
   21       -9.388365   1.000000
   22       -9.264838   1.000000
   23       -9.145260   1.000000
   24       -8.942258   1.000000
   25       -8.741459   1.000000
   26       -8.614905   1.000000
   27       -8.288621   1.000000
   28       -8.141232   1.000000
   29       -7.960139   1.000000
   30       -7.892706   1.000000
   31       -7.735366   1.000000
   32       -7.670405   1.000000
   33       -7.649307   1.000000
   34       -7.585529   1.000000
   35       -7.430950   1.000000
   36       -7.277594   1.000000
   37       -7.212840   1.000000
   38       -7.133540   1.000000
   39       -7.064489   1.000000
   40       -6.936485   1.000000
   41       -6.635791   1.000000
   42       -6.608411   1.000000
   43       -6.434645   1.000000
   44       -6.390866   1.000000
   45       -6.331833   1.000000
   46       -6.077335   1.000000
   47       -6.025477   1.000000
   48       -5.903184   1.000000
   49       -5.888004   1.000000
   50       -5.776488   1.000000
   51       -5.721522   1.000000
   52       -5.683061   1.000000
   53       -5.587891   1.000000
   54       -5.505926   1.000000
   55       -5.448159   1.000000
   56       -5.394502   1.000000
   57       -5.326504   1.000000
   58       -5.262056   1.000000
   59       -5.166654   1.000000
   60       -5.048505   1.000000
   61       -4.991133   1.000000
   62       -4.949761   1.000000
   63       -4.880707   1.000000
   64       -4.802066   1.000000
   65       -4.710595   1.000000
   66       -4.591894   1.000000
   67       -4.557732   1.000000
   68       -4.496466   1.000000
   69       -4.424434   1.000000
   70       -4.393320   1.000000
   71       -4.296071   1.000000
   72       -4.267032   1.000000
   73       -4.169081   1.000000
   74       -4.159600   1.000000
   75       -4.068337   1.000000
   76       -4.015960   1.000000
   77       -3.914943   1.000000
   78       -3.831376   1.000000
   79       -3.805525   1.000000
   80       -3.778332   1.000000
   81       -3.747889   1.000000
   82       -3.679739   1.000000
   83       -3.578272   1.000000
   84       -3.504348   1.000000
   85       -3.430509   1.000000
   86       -3.391545   1.000000
   87       -3.336295   1.000000
   88       -3.282283   1.000000
   89       -3.216472   1.000000
   90       -3.110536   1.000000
   91       -3.077176   1.000000
   92       -2.998939   1.000000
   93       -2.995992   1.000000
   94       -2.971216   1.000000
   95       -2.822841   1.000000
   96       -2.790842   1.000000
   97       -2.755566   1.000000
   98       -2.719323   1.000000
   99       -2.534480   1.000000
  100       -2.486904   1.000000
  101       -2.467681   1.000000
  102       -2.415701   1.000000
  103       -2.148969   1.000000
  104       -2.124801   1.000000
  105       -2.062827   1.000000
  106       -1.982661   1.000000
  107       -1.898327   1.000000
  108       -1.891826   1.000000
  109       -1.854556   1.000000
  110       -1.756588   1.000000
  111       -1.717570   1.000000
  112       -1.711021   1.000000
  113       -1.599182   1.000000
  114       -1.504079   1.000000
  115       -1.448447   1.000000
  116       -1.359173   1.000000
  117       -1.252429   1.000000
  118       -1.226249   1.000000
  119       -1.018310   1.000000
  120       -0.975999   1.000000
  121       -0.899184   1.000000
  122       -0.866267   1.000000
  123       -0.708926   1.000000
  124       -0.660825   1.000000
  125       -0.387404   1.000019
  126       -0.379823   1.000023
  127       -0.261800   1.000586
  128       -0.217264   1.001615
  129       -0.190964   1.002781
  130       -0.164564   1.004600
  131       -0.023578   1.029576
  132        0.097396   1.001922
  133        0.225751   0.672663
  134        0.250763   0.570764
  135        0.301337   0.359280
  136        0.383019   0.090414
  137        0.449362  -0.012933
  138        0.465566  -0.024066
  139        0.543951  -0.032410
  140        0.596562  -0.020998
  141        0.723657  -0.002917
  142        0.757137  -0.001457
  143        0.868671  -0.000091
  144        0.914806  -0.000023
  145        0.951495  -0.000007
  146        0.987655  -0.000002
  147        1.092562  -0.000000
  148        1.221454  -0.000000
  149        1.248388  -0.000000
  150        1.293724  -0.000000
  151        1.321795  -0.000000
  152        1.349918  -0.000000
  153        1.375470  -0.000000
  154        1.426586  -0.000000
  155        1.457755  -0.000000
  156        1.494541  -0.000000
  157        1.509631  -0.000000
  158        1.546374  -0.000000
  159        1.581233  -0.000000
  160        1.629246  -0.000000
  161        1.670489  -0.000000
  162        1.712669  -0.000000
  163        1.751003  -0.000000
  164        1.759734  -0.000000
  165        1.793154  -0.000000
  166        1.817163  -0.000000
  167        1.873426  -0.000000
  168        1.920634  -0.000000
  169        1.998952  -0.000000
  170        2.082504  -0.000000
  171        2.155522  -0.000000
  172        2.271900  -0.000000
  173        2.326187  -0.000000
  174        2.462275  -0.000000
  175        2.570137  -0.000000
  176        2.798148  -0.000000

  0.3742002E-15  0.1111111E+00  0.1262379E-14  0.4444444E-01
    1      -13.791020   1.000000
    2      -12.805632   1.000000
    3      -12.663876   1.000000
    4      -12.313968   1.000000
    5      -11.822650   1.000000
    6      -11.566015   1.000000
    7      -11.533779   1.000000
    8      -11.472017   1.000000
    9      -11.370200   1.000000
   10      -11.115930   1.000000
   11      -10.976760   1.000000
   12      -10.928140   1.000000
   13      -10.751881   1.000000
   14      -10.370375   1.000000
   15      -10.240609   1.000000
   16      -10.164846   1.000000
   17      -10.058143   1.000000
   18       -9.974958   1.000000
   19       -9.707715   1.000000
   20       -9.574927   1.000000
   21       -9.529806   1.000000
   22       -9.413416   1.000000
   23       -9.328522   1.000000
   24       -8.897415   1.000000
   25       -8.862494   1.000000
   26       -8.702988   1.000000
   27       -8.508453   1.000000
   28       -8.469068   1.000000
   29       -8.212394   1.000000
   30       -8.048689   1.000000
   31       -7.800351   1.000000
   32       -7.750930   1.000000
   33       -7.485672   1.000000
   34       -7.372677   1.000000
   35       -7.333516   1.000000
   36       -7.214179   1.000000
   37       -7.118822   1.000000
   38       -6.860762   1.000000
   39       -6.803905   1.000000
   40       -6.740694   1.000000
   41       -6.633373   1.000000
   42       -6.571307   1.000000
   43       -6.498984   1.000000
   44       -6.357320   1.000000
   45       -6.243699   1.000000
   46       -6.178577   1.000000
   47       -6.065059   1.000000
   48       -5.925239   1.000000
   49       -5.882834   1.000000
   50       -5.855585   1.000000
   51       -5.744598   1.000000
   52       -5.663457   1.000000
   53       -5.604864   1.000000
   54       -5.562906   1.000000
   55       -5.515724   1.000000
   56       -5.394525   1.000000
   57       -5.292220   1.000000
   58       -5.234045   1.000000
   59       -5.171917   1.000000
   60       -5.111113   1.000000
   61       -5.046090   1.000000
   62       -4.998096   1.000000
   63       -4.862819   1.000000
   64       -4.835138   1.000000
   65       -4.704693   1.000000
   66       -4.601084   1.000000
   67       -4.549179   1.000000
   68       -4.493264   1.000000
   69       -4.410353   1.000000
   70       -4.386038   1.000000
   71       -4.346533   1.000000
   72       -4.304652   1.000000
   73       -4.197716   1.000000
   74       -4.118773   1.000000
   75       -4.046916   1.000000
   76       -4.025090   1.000000
   77       -3.979656   1.000000
   78       -3.923752   1.000000
   79       -3.791072   1.000000
   80       -3.767061   1.000000
   81       -3.690196   1.000000
   82       -3.657770   1.000000
   83       -3.565029   1.000000
   84       -3.518452   1.000000
   85       -3.455525   1.000000
   86       -3.348890   1.000000
   87       -3.323705   1.000000
   88       -3.252987   1.000000
   89       -3.157992   1.000000
   90       -3.115658   1.000000
   91       -3.091918   1.000000
   92       -3.041103   1.000000
   93       -2.995553   1.000000
   94       -2.920308   1.000000
   95       -2.891146   1.000000
   96       -2.792777   1.000000
   97       -2.734583   1.000000
   98       -2.583238   1.000000
   99       -2.540536   1.000000
  100       -2.496389   1.000000
  101       -2.413425   1.000000
  102       -2.365815   1.000000
  103       -2.261307   1.000000
  104       -2.222641   1.000000
  105       -2.179103   1.000000
  106       -2.121591   1.000000
  107       -2.012125   1.000000
  108       -2.001126   1.000000
  109       -1.940819   1.000000
  110       -1.861618   1.000000
  111       -1.784340   1.000000
  112       -1.704694   1.000000
  113       -1.568046   1.000000
  114       -1.535420   1.000000
  115       -1.328614   1.000000
  116       -1.250476   1.000000
  117       -1.223153   1.000000
  118       -1.147130   1.000000
  119       -1.051150   1.000000
  120       -0.896303   1.000000
  121       -0.781100   1.000000
  122       -0.756339   1.000000
  123       -0.671798   1.000000
  124       -0.532124   1.000000
  125       -0.449938   1.000002
  126       -0.320709   1.000129
  127       -0.182346   1.003293
  128       -0.159619   1.005030
  129       -0.129903   1.008328
  130       -0.055970   1.022253
  131        0.023112   1.035457
  132        0.103987   0.994469
  133        0.214023   0.717754
  134        0.230930   0.652117
  135        0.287482   0.416130
  136        0.380503   0.096428
  137        0.411022   0.034214
  138        0.473766  -0.028058
  139        0.562467  -0.028769
  140        0.600305  -0.020152
  141        0.681292  -0.006363
  142        0.749665  -0.001711
  143        0.846591  -0.000166
  144        0.880090  -0.000065
  145        0.915477  -0.000023
  146        0.970510  -0.000004
  147        1.048517  -0.000000
  148        1.107189  -0.000000
  149        1.159519  -0.000000
  150        1.251427  -0.000000
  151        1.281208  -0.000000
  152        1.306186  -0.000000
  153        1.335589  -0.000000
  154        1.373185  -0.000000
  155        1.392043  -0.000000
  156        1.449018  -0.000000
  157        1.463180  -0.000000
  158        1.486301  -0.000000
  159        1.521512  -0.000000
  160        1.554049  -0.000000
  161        1.591339  -0.000000
  162        1.626024  -0.000000
  163        1.638885  -0.000000
  164        1.677804  -0.000000
  165        1.732914  -0.000000
  166        1.817930  -0.000000
  167        1.835532  -0.000000
  168        1.861867  -0.000000
  169        1.950026  -0.000000
  170        1.972537  -0.000000
  171        2.074155  -0.000000
  172        2.098827  -0.000000
  173        2.218051  -0.000000
  174        2.367827  -0.000000
  175        2.610111  -0.000000
  176        2.922061  -0.000000

  0.2000000E+00  0.1111111E+00  0.1262379E-14  0.4444444E-01
    1      -13.750651   1.000000
    2      -13.044718   1.000000
    3      -12.565153   1.000000
    4      -12.063030   1.000000
    5      -11.872407   1.000000
    6      -11.802583   1.000000
    7      -11.584270   1.000000
    8      -11.329619   1.000000
    9      -11.167301   1.000000
   10      -11.112160   1.000000
   11      -10.950293   1.000000
   12      -10.835897   1.000000
   13      -10.737112   1.000000
   14      -10.534350   1.000000
   15      -10.418619   1.000000
   16      -10.203079   1.000000
   17      -10.131898   1.000000
   18      -10.062944   1.000000
   19       -9.718512   1.000000
   20       -9.669802   1.000000
   21       -9.407282   1.000000
   22       -9.329265   1.000000
   23       -9.233694   1.000000
   24       -8.967491   1.000000
   25       -8.856796   1.000000
   26       -8.772694   1.000000
   27       -8.371994   1.000000
   28       -8.236991   1.000000
   29       -8.096234   1.000000
   30       -8.010744   1.000000
   31       -7.919232   1.000000
   32       -7.725031   1.000000
   33       -7.516970   1.000000
   34       -7.420142   1.000000
   35       -7.335842   1.000000
   36       -7.211259   1.000000
   37       -7.194898   1.000000
   38       -6.985573   1.000000
   39       -6.869765   1.000000
   40       -6.749142   1.000000
   41       -6.649533   1.000000
   42       -6.575472   1.000000
   43       -6.476551   1.000000
   44       -6.441628   1.000000
   45       -6.328516   1.000000
   46       -6.210026   1.000000
   47       -6.060872   1.000000
   48       -5.890852   1.000000
   49       -5.863610   1.000000
   50       -5.753454   1.000000
   51       -5.733892   1.000000
   52       -5.659548   1.000000
   53       -5.608620   1.000000
   54       -5.515375   1.000000
   55       -5.486953   1.000000
   56       -5.352599   1.000000
   57       -5.278215   1.000000
   58       -5.221028   1.000000
   59       -5.148662   1.000000
   60       -5.084353   1.000000
   61       -5.046773   1.000000
   62       -4.950608   1.000000
   63       -4.894249   1.000000
   64       -4.833613   1.000000
   65       -4.682038   1.000000
   66       -4.611882   1.000000
   67       -4.547038   1.000000
   68       -4.482902   1.000000
   69       -4.434290   1.000000
   70       -4.364446   1.000000
   71       -4.312507   1.000000
   72       -4.245882   1.000000
   73       -4.189012   1.000000
   74       -4.175403   1.000000
   75       -4.124085   1.000000
   76       -4.020437   1.000000
   77       -3.955724   1.000000
   78       -3.891997   1.000000
   79       -3.789228   1.000000
   80       -3.754467   1.000000
   81       -3.719779   1.000000
   82       -3.685438   1.000000
   83       -3.584640   1.000000
   84       -3.514711   1.000000
   85       -3.449123   1.000000
   86       -3.355611   1.000000
   87       -3.322048   1.000000
   88       -3.286847   1.000000
   89       -3.214621   1.000000
   90       -3.120259   1.000000
   91       -3.081484   1.000000
   92       -3.044157   1.000000
   93       -3.001856   1.000000
   94       -2.951392   1.000000
   95       -2.907068   1.000000
   96       -2.832630   1.000000
   97       -2.656317   1.000000
   98       -2.628703   1.000000
   99       -2.554279   1.000000
  100       -2.459209   1.000000
  101       -2.429125   1.000000
  102       -2.327506   1.000000
  103       -2.303564   1.000000
  104       -2.189167   1.000000
  105       -2.140489   1.000000
  106       -2.113956   1.000000
  107       -2.034329   1.000000
  108       -1.941996   1.000000
  109       -1.877321   1.000000
  110       -1.813184   1.000000
  111       -1.776375   1.000000
  112       -1.693319   1.000000
  113       -1.598245   1.000000
  114       -1.548569   1.000000
  115       -1.342220   1.000000
  116       -1.278692   1.000000
  117       -1.211982   1.000000
  118       -1.189398   1.000000
  119       -1.085481   1.000000
  120       -0.981456   1.000000
  121       -0.816745   1.000000
  122       -0.752837   1.000000
  123       -0.626815   1.000000
  124       -0.550026   1.000000
  125       -0.505556   1.000000
  126       -0.307481   1.000185
  127       -0.231746   1.001176
  128       -0.175667   1.003742
  129       -0.110779   1.011165
  130       -0.091631   1.014589
  131       -0.012411   1.031779
  132        0.103305   0.995282
  133        0.191118   0.798722
  134        0.256739   0.545680
  135        0.313954   0.309394
  136        0.354040   0.169231
  137        0.458246  -0.019601
  138        0.518236  -0.035336
  139        0.538839  -0.033238
  140        0.644519  -0.011390
  141        0.681994  -0.006287
  142        0.753295  -0.001583
  143        0.836010  -0.000219
  144        0.893620  -0.000044
  145        0.943760  -0.000009
  146        1.031602  -0.000000
  147        1.096964  -0.000000
  148        1.123573  -0.000000
  149        1.151451  -0.000000
  150        1.256769  -0.000000
  151        1.281919  -0.000000
  152        1.321760  -0.000000
  153        1.348460  -0.000000
  154        1.377966  -0.000000
  155        1.439360  -0.000000
  156        1.449561  -0.000000
  157        1.471597  -0.000000
  158        1.506418  -0.000000
  159        1.527203  -0.000000
  160        1.573984  -0.000000
  161        1.599024  -0.000000
  162        1.637478  -0.000000
  163        1.685755  -0.000000
  164        1.717836  -0.000000
  165        1.786145  -0.000000
  166        1.794786  -0.000000
  167        1.844077  -0.000000
  168        1.863256  -0.000000
  169        1.891921  -0.000000
  170        1.994324  -0.000000
  171        2.065454  -0.000000
  172        2.126923  -0.000000
  173        2.291460  -0.000000
  174        2.359981  -0.000000
  175        2.405745  -0.000000
  176        2.505764  -0.000000

  0.4000000E+00  0.1111111E+00  0.1262379E-14  0.4444444E-01
    1      -13.649166   1.000000
    2      -13.298978   1.000000
    3      -12.455449   1.000000
    4      -12.124479   1.000000
    5      -11.787717   1.000000
    6      -11.653498   1.000000
    7      -11.572959   1.000000
    8      -11.282849   1.000000
    9      -11.136316   1.000000
   10      -11.048083   1.000000
   11      -10.937593   1.000000