   51   51   85    1
  0.2316787E+02  0.8645320E-09  0.6085000E-09  0.2593596E-08  0.5000000E-15
   1.0000000000000000E-004
  CAR 
 Name                                    
    191    149    128

  0.3742002E-15  0.3742002E-15  0.3742002E-15  0.3367003E-02
    1      -13.961230   1.000000
    2      -12.695842   1.000000
    3      -12.460524   1.000000
    4      -11.949004   1.000000
    5      -11.683586   1.000000
    6      -11.155565   1.000000
    7      -11.132584   1.000000
    8      -11.117516   1.000000
    9      -11.012698   1.000000
   10      -10.706703   1.000000
   11      -10.665403   1.000000
   12      -10.354917   1.000000
   13      -10.282700   1.000000
   14      -10.241529   1.000000
   15       -9.785127   1.000000
   16       -9.777529   1.000000
   17       -9.198024   1.000000
   18       -9.162112   1.000000
   19       -8.961626   1.000000
   20       -8.661186   1.000000
   21       -8.499893   1.000000
   22       -8.471953   1.000000
   23       -8.423715   1.000000
   24       -8.134997   1.000000
   25       -8.011900   1.000000
   26       -7.986760   1.000000
   27       -7.607869   1.000000
   28       -7.307249   1.000000
   29       -6.988651   1.000000
   30       -6.596324   1.000000
   31       -6.522092   1.000000
   32       -6.500305   1.000000
   33       -6.164093   1.000000
   34       -6.061272   1.000000
   35       -6.005487   1.000000
   36       -5.811344   1.000000
   37       -5.680828   1.000000
   38       -5.513425   1.000000
   39       -5.485285   1.000000
   40       -5.418788   1.000000
   41       -5.199167   1.000000
   42       -5.176576   1.000000
   43       -5.118366   1.000000
   44       -5.054813   1.000000
   45       -4.921120   1.000000
   46       -4.862836   1.000000
   47       -4.773641   1.000000
   48       -4.710687   1.000000
   49       -4.662325   1.000000
   50       -4.613557   1.000000
   51       -4.566463   1.000000
   52       -4.521109   1.000000
   53       -4.478889   1.000000
   54       -4.363615   1.000000
   55       -4.297433   1.000000
   56       -4.177352   1.000000
   57       -4.140529   1.000000
   58       -4.071982   1.000000
   59       -4.032730   1.000000
   60       -3.955390   1.000000
   61       -3.898032   1.000000
   62       -3.782967   1.000000
   63       -3.560652   1.000000
   64       -3.505527   1.000000
   65       -3.466684   1.000000
   66       -3.434152   1.000000
   67       -3.399696   1.000000
   68       -3.369428   1.000000
   69       -3.263314   1.000000
   70       -3.235061   1.000000
   71       -3.172984   1.000000
   72       -3.124140   1.000000
   73       -3.022287   1.000000
   74       -2.751258   1.000000
   75       -2.529774   1.000000
   76       -2.408958   1.000000
   77       -2.281152   1.000000
   78       -2.188738   1.000000
   79       -2.088499   1.000000
   80       -1.972134   1.000000
   81       -1.773211   1.000000
   82       -1.728374   1.000000
   83       -1.711053   1.000000
   84       -1.429981   1.000000
   85       -1.283074   1.000000
   86       -1.130471   1.000000
   87       -1.039186   1.000000
   88       -0.972819   1.000000
   89       -0.944118   1.000000
   90       -0.400238   1.000000
   91       -0.224222   1.000143
   92       -0.079629   1.028681
   93       -0.005894   0.972834
   94        0.040860   0.720807
   95        0.102173   0.228893
   96        0.133396   0.057364
   97        0.168508  -0.025615
   98        0.416630  -0.000005
   99        0.515349  -0.000000
  100        0.575337  -0.000000
  101        0.598847  -0.000000
  102        0.700740  -0.000000
  103        0.702724  -0.000000
  104        0.791727  -0.000000
  105        0.891538  -0.000000
  106        0.930396  -0.000000
  107        1.167428  -0.000000
  108        1.252520  -0.000000
  109        1.310669  -0.000000
  110        1.329101  -0.000000
  111        1.414621  -0.000000
  112        1.444420  -0.000000
  113        1.478414  -0.000000
  114        1.517172  -0.000000
  115        1.647798  -0.000000
  116        1.669046  -0.000000
  117        1.742976  -0.000000
  118        1.843390  -0.000000
  119        1.890116  -0.000000
  120        1.911099  -0.000000
  121        1.923190  -0.000000
  122        1.981581  -0.000000
  123        2.056721  -0.000000
  124        2.118530  -0.000000
  125        2.167597  -0.000000
  126        2.305017  -0.000000
  127        2.358663  -0.000000
  128        2.412464  -0.000000

  0.1111111E+00  0.3729374E-15  0.3860503E-15  0.6734007E-02
    1      -13.934265   1.000000
    2      -12.679260   1.000000
    3      -12.569451   1.000000
    4      -11.894640   1.000000
    5      -11.670111   1.000000
    6      -11.165141   1.000000
    7      -11.124827   1.000000
    8      -11.110239   1.000000
    9      -11.033767   1.000000
   10      -10.705572   1.000000
   11      -10.660945   1.000000
   12      -10.368981   1.000000
   13      -10.269412   1.000000
   14      -10.226698   1.000000
   15       -9.783759   1.000000
   16       -9.766734   1.000000
   17       -9.206863   1.000000
   18       -9.145258   1.000000
   19       -8.965584   1.000000
   20       -8.671188   1.000000
   21       -8.509099   1.000000
   22       -8.472508   1.000000
   23       -8.451074   1.000000
   24       -8.128455   1.000000
   25       -8.046933   1.000000
   26       -8.001237   1.000000
   27       -7.638523   1.000000
   28       -7.380489   1.000000
   29       -6.951335   1.000000
   30       -6.568134   1.000000
   31       -6.492402   1.000000
   32       -6.444106   1.000000
   33       -6.135257   1.000000
   34       -6.064862   1.000000
   35       -5.995008   1.000000
   36       -5.781560   1.000000
   37       -5.729910   1.000000
   38       -5.556650   1.000000
   39       -5.448248   1.000000
   40       -5.345581   1.000000
   41       -5.283101   1.000000
   42       -5.137432   1.000000
   43       -5.092903   1.000000
   44       -5.080752   1.000000
   45       -4.879254   1.000000
   46       -4.803340   1.000000
   47       -4.782242   1.000000
   48       -4.732757   1.000000
   49       -4.663878   1.000000
   50       -4.627517   1.000000
   51       -4.527029   1.000000
   52       -4.503957   1.000000
   53       -4.449945   1.000000
   54       -4.359162   1.000000
   55       -4.285413   1.000000
   56       -4.191713   1.000000
   57       -4.156073   1.000000
   58       -4.094035   1.000000
   59       -4.042054   1.000000
   60       -3.931366   1.000000
   61       -3.908759   1.000000
   62       -3.764265   1.000000
   63       -3.606722   1.000000
   64       -3.497363   1.000000
   65       -3.446236   1.000000
   66       -3.439022   1.000000
   67       -3.393172   1.000000
   68       -3.363366   1.000000
   69       -3.290803   1.000000
   70       -3.225958   1.000000
   71       -3.202738   1.000000
   72       -3.093371   1.000000
   73       -3.036012   1.000000
   74       -2.802276   1.000000
   75       -2.528777   1.000000
   76       -2.411220   1.000000
   77       -2.255425   1.000000
   78       -2.240952   1.000000
   79       -2.120530   1.000000
   80       -1.997476   1.000000
   81       -1.753443   1.000000
   82       -1.726882   1.000000
   83       -1.659711   1.000000
   84       -1.441084   1.000000
   85       -1.298119   1.000000
   86       -1.106209   1.000000
   87       -1.030892   1.000000
   88       -0.965225   1.000000
   89       -0.856294   1.000000
   90       -0.463702   1.000000
   91       -0.286006   1.000003
   92       -0.073343   1.031259
   93       -0.056887   1.035369
   94        0.029302   0.802092
   95        0.096516   0.269443
   96        0.129165   0.074965
   97        0.239532  -0.017898
   98        0.400908  -0.000013
   99        0.537497  -0.000000
  100        0.559692  -0.000000
  101        0.589631  -0.000000
  102        0.695586  -0.000000
  103        0.748649  -0.000000
  104        0.803506  -0.000000
  105        0.895358  -0.000000
  106        0.957525  -0.000000
  107        1.231558  -0.000000
  108        1.257261  -0.000000
  109        1.291710  -0.000000
  110        1.361596  -0.000000
  111        1.409653  -0.000000
  112        1.457769  -0.000000
  113        1.502553  -0.000000
  114        1.541036  -0.000000
  115        1.642777  -0.000000
  116        1.657936  -0.000000
  117        1.723420  -0.000000
  118        1.840307  -0.000000
  119        1.887342  -0.000000
  120        1.908926  -0.000000
  121        1.920325  -0.000000
  122        1.978811  -0.000000
  123        2.040901  -0.000000
  124        2.120119  -0.000000
  125        2.146398  -0.000000
  126        2.248848  -0.000000
  127        2.344527  -0.000000
  128        2.396906  -0.000000

  0.2222222E+00  0.3922785E-15  0.3630220E-15  0.6734007E-02
    1      -13.854160   1.000000
    2      -12.824793   1.000000
    3      -12.590274   1.000000
    4      -11.861594   1.000000
    5      -11.631552   1.000000
    6      -11.202775   1.000000
    7      -11.111324   1.000000
    8      -11.096346   1.000000
    9      -11.019061   1.000000
   10      -10.699242   1.000000
   11      -10.647385   1.000000
   12      -10.431327   1.000000
   13      -10.243931   1.000000
   14      -10.190564   1.000000
   15       -9.780046   1.000000
   16       -9.727333   1.000000
   17       -9.235417   1.000000
   18       -9.098355   1.000000
   19       -8.957573   1.000000
   20       -8.713540   1.000000
   21       -8.601513   1.000000
   22       -8.472536   1.000000
   23       -8.461815   1.000000
   24       -8.170517   1.000000
   25       -8.126198   1.000000
   26       -7.945982   1.000000
   27       -7.769432   1.000000
   28       -7.435042   1.000000
   29       -6.911753   1.000000
   30       -6.517730   1.000000
   31       -6.443480   1.000000
   32       -6.322904   1.000000
   33       -6.171012   1.000000
   34       -6.063132   1.000000
   35       -5.928195   1.000000
   36       -5.820076   1.000000
   37       -5.691485   1.000000
   38       -5.546023   1.000000
   39       -5.444545   1.000000
   40       -5.329935   1.000000
   41       -5.212194   1.000000
   42       -5.099457   1.000000
   43       -5.018578   1.000000
   44       -4.980166   1.000000
   45       -4.945011   1.000000
   46       -4.879998   1.000000
   47       -4.796257   1.000000
   48       -4.658232   1.000000
   49       -4.629787   1.000000
   50       -4.600021   1.000000
   51       -4.504919   1.000000
   52       -4.459333   1.000000
   53       -4.398487   1.000000
   54       -4.352072   1.000000
   55       -4.289343   1.000000
   56       -4.195928   1.000000
   57       -4.135385   1.000000
   58       -4.117797   1.000000
   59       -4.055881   1.000000
   60       -3.934216   1.000000
   61       -3.890979   1.000000
   62       -3.732093   1.000000
   63       -3.667302   1.000000
   64       -3.555608   1.000000
   65       -3.505759   1.000000
   66       -3.435370   1.000000
   67       -3.410100   1.000000
   68       -3.343719   1.000000
   69       -3.326041   1.000000
   70       -3.215746   1.000000
   71       -3.180881   1.000000
   72       -3.063712   1.000000
   73       -2.997355   1.000000
   74       -2.895489   1.000000
   75       -2.532538   1.000000
   76       -2.427035   1.000000
   77       -2.371716   1.000000
   78       -2.224970   1.000000
   79       -2.210485   1.000000
   80       -2.006152   1.000000
   81       -1.844123   1.000000
   82       -1.724702   1.000000
   83       -1.482196   1.000000
   84       -1.422585   1.000000
   85       -1.340000   1.000000
   86       -1.063587   1.000000
   87       -0.993311   1.000000
   88       -0.922940   1.000000
   89       -0.619723   1.000000
   90       -0.588906   1.000000
   91       -0.431014   1.000000
   92       -0.249010   1.000035
   93       -0.095944   1.021239
   94        0.026594   0.819516
   95        0.113407   0.156346
   96        0.209960  -0.031046
   97        0.287024  -0.004128
   98        0.403389  -0.000011
   99        0.499953  -0.000000
  100        0.538167  -0.000000
  101        0.606835  -0.000000
  102        0.730667  -0.000000
  103        0.772265  -0.000000
  104        0.844093  -0.000000
  105        0.937042  -0.000000
  106        1.110444  -0.000000
  107        1.208425  -0.000000
  108        1.309356  -0.000000
  109        1.361204  -0.000000
  110        1.403155  -0.000000
  111        1.422305  -0.000000
  112        1.472392  -0.000000
  113        1.541674  -0.000000
  114        1.575293  -0.000000
  115        1.607860  -0.000000
  116        1.673952  -0.000000
  117        1.703316  -0.000000
  118        1.828255  -0.000000
  119        1.872905  -0.000000
  120        1.886919  -0.000000
  121        1.911565  -0.000000
  122        1.944444  -0.000000
  123        2.006644  -0.000000
  124        2.112955  -0.000000
  125        2.134967  -0.000000
  126        2.155159  -0.000000
  127        2.246789  -0.000000
  128        2.290108  -0.000000

  0.3333333E+00  0.3713828E-15  0.3468587E-15  0.6734007E-02
    1      -13.723402   1.000000
    2      -13.080837   1.000000
    3      -12.484292   1.000000
    4      -11.941655   1.000000
    5      -11.581280   1.000000
    6      -11.226505   1.000000
    7      -11.098560   1.000000
    8      -11.084278   1.000000
    9      -10.943290   1.000000
   10      -10.687858   1.000000
   11      -10.628366   1.000000
   12      -10.540317   1.000000
   13      -10.229529   1.000000
   14      -10.154205   1.000000
   15       -9.772996   1.000000
   16       -9.647632   1.000000
   17       -9.256168   1.000000
   18       -9.152115   1.000000
   19       -8.839275   1.000000
   20       -8.752652   1.000000
   21       -8.738846   1.000000
   22       -8.470957   1.000000
   23       -8.467212   1.000000
   24       -8.256679   1.000000
   25       -8.205757   1.000000
   26       -8.018491   1.000000
   27       -7.756634   1.000000
   28       -7.365459   1.000000
   29       -6.934684   1.000000
   30       -6.491508   1.000000
   31       -6.424932   1.000000
   32       -6.367733   1.000000
   33       -6.249520   1.000000
   34       -6.026434   1.000000
   35       -5.826184   1.000000
   36       -5.794752   1.000000
   37       -5.584737   1.000000
   38       -5.459557   1.000000
   39       -5.386346   1.000000
   40       -5.271126   1.000000
   41       -5.185495   1.000000
   42       -5.131396   1.000000
   43       -5.035469   1.000000
   44       -4.958024   1.000000
   45       -4.901083   1.000000
   46       -4.870078   1.000000
   47       -4.771113   1.000000
   48       -4.640166   1.000000
   49       -4.595357   1.000000
   50       -4.541234   1.000000
   51       -4.484200   1.000000
   52       -4.471699   1.000000
   53       -4.366169   1.000000
   54       -4.312740   1.000000
   55       -4.249346   1.000000
   56       -4.215339   1.000000
   57       -4.155955   1.000000
   58       -4.057441   1.000000
   59       -4.036159   1.000000
   60       -3.939573   1.000000
   61       -3.877453   1.000000
   62       -3.761090   1.000000
   63       -3.709405   1.000000
   64       -3.687999   1.000000
   65       -3.562303   1.000000
   66       -3.465811   1.000000
   67       -3.413443   1.000000
   68       -3.378179   1.000000
   69       -3.297836   1.000000
   70       -3.208731   1.000000
   71       -3.188451   1.000000
   72       -3.008369   1.000000
   73       -2.919173   1.000000
   74       -2.870255   1.000000
   75       -2.591422   1.000000
   76       -2.506178   1.000000
   77       -2.457908   1.000000
   78       -2.326919   1.000000
   79       -2.245069   1.000000
   80       -1.994822   1.000000
   81       -1.921613   1.000000
   82       -1.727624   1.000000
   83       -1.537954   1.000000
   84       -1.374426   1.000000
   85       -1.182682   1.000000
   86       -1.030509   1.000000
   87       -0.885252   1.000000
   88       -0.796154   1.000000
   89       -0.736546   1.000000
   90       -0.587765   1.000000
   91       -0.446106   1.000000
   92       -0.290655   1.000002
   93       -0.250082   1.000033
   94       -0.004063   0.966974
   95        0.126024   0.089200
   96        0.212978  -0.029834
   97        0.326317  -0.000793
   98        0.377698  -0.000054
   99        0.439656  -0.000001
  100        0.595863  -0.000000
  101        0.682088  -0.000000
  102        0.778432  -0.000000
  103        0.858174  -0.000000
  104        0.887330  -0.000000
  105        1.034598  -0.000000
  106        1.057772  -0.000000
  107        1.307652  -0.000000
  108        1.386768  -0.000000
  109        1.413781  -0.000000
  110        1.452230  -0.000000
  111        1.462207  -0.000000
  112        1.510102  -0.000000
  113        1.547744  -0.000000
  114        1.568541  -0.000000
  115        1.585909  -0.000000
  116        1.675145  -0.000000
  117        1.748303  -0.000000
  118        1.806049  -0.000000
  119        1.815876  -0.000000
  120        1.837963  -0.000000
  121        1.894019  -0.000000
  122        1.940875  -0.000000
  123        1.961358  -0.000000
  124        1.989190  -0.000000
  125        2.033879  -0.000000
  126        2.137141  -0.000000
  127        2.162811  -0.000000
  128        2.201407  -0.000000

  0.4444444E+00  0.3870091E-15  0.3932070E-15  0.6734007E-02
    1      -13.547153   1.000000
    2      -13.325957   1.000000
    3      -12.363862   1.000000
    4      -12.071039   1.000000
    5      -11.544089   1.000000
    6      -11.231614   1.000000
    7      -11.090614   1.000000
    8      -11.076541   1.000000
    9      -10.844863   1.000000
   10      -10.692418   1.000000
   11      -10.650708   1.000000
   12      -10.608182   1.000000
   13      -10.228327   1.000000
   14      -10.135597   1.000000
   15       -9.764051   1.000000
   16       -9.543399   1.000000
   17       -9.270997   1.000000
   18       -9.256862   1.000000
   19       -8.840522   1.000000
   20       -8.760561   1.000000
   21       -8.673365   1.000000
   22       -8.484368   1.000000
   23       -8.464513   1.000000
   24       -8.316119   1.000000
   25       -8.256318   1.000000
   26       -8.226925   1.000000
   27       -7.582286   1.000000
   28       -7.263206   1.000000
   29       -7.021623   1.000000
   30       -6.567763   1.000000
   31       -6.456815   1.000000
   32       -6.387115   1.000000
   33       -6.331500   1.000000
   34       -5.980214   1.000000
   35       -5.685758   1.000000
   36       -5.641256   1.000000
   37       -5.520453   1.000000
   38       -5.424620   1.000000
   39       -5.374072   1.000000
   40       -5.310627   1.000000
   41       -5.236825   1.000000
   42       -5.134385   1.000000
   43       -5.067215   1.000000
   44       -4.932400   1.000000
   45       -4.827903   1.000000
   46       -4.786449   1.000000
   47       -4.725065   1.000000
   48       -4.652184   1.000000
   49       -4.635244   1.000000
   50       -4.529424   1.000000
   51       -4.468917   1.000000
   52       -4.421522   1.000000
   53       -4.345527   1.000000
   54       -4.323273   1.000000
   55       -4.237284   1.000000
   56       -4.164673   1.000000
   57       -4.127118   1.000000
   58       -4.082351   1.000000
   59       -3.997428   1.000000
   60       -3.915315   1.000000
   61       -3.889054   1.000000
   62       -3.844807   1.000000
   63       -3.801258   1.000000
   64       -3.676653   1.000000
   65       -3.592095   1.000000
   66       -3.520784   1.000000
   67       -3.448412   1.000000
   68       -3.376869   1.000000
   69       -3.274193   1.000000
   70       -3.209243   1.000000
   71       -3.196245   1.000000
   72       -2.927428   1.000000
   73       -2.866095   1.000000
   74       -2.749918   1.000000
   75       -2.685211   1.000000
   76       -2.607454   1.000000
   77       -2.533185   1.000000
   78       -2.398551   1.000000
   79       -2.217394   1.000000
   80       -2.118156   1.000000
   81       -1.899075   1.000000
   82       -1.722165   1.000000
   83       -1.567950   1.000000
   84       -1.372618   1.000000
   85       -1.026884   1.000000
   86       -0.961059   1.000000
   87       -0.879875   1.000000
   88       -0.838467   1.000000
   89       -0.670314   1.000000
   90       -0.591664   1.000000
   91       -0.505517   1.000000
   92       -0.411353   1.000000
   93       -0.171118   1.001855
   94       -0.018721   1.005362
   95        0.063276   0.540191
   96        0.205321  -0.032716
   97        0.296126  -0.002912
   98        0.384806  -0.000035
   99        0.580793  -0.000000
  100        0.615356  -0.000000
  101        0.644254  -0.000000
  102        0.781884  -0.000000
  103        0.818160  -0.000000
  104        0.886369  -0.000000
  105        1.203352  -0.000000
  106        1.208860  -0.000000
  107        1.330907  -0.000000
  108        1.433673  -0.000000
  109        1.454373  -0.000000
  110        1.473253  -0.000000
  111        1.517339  -0.000000
  112        1.533811  -0.000000
  113        1.550613  -0.000000
  114        1.566519  -0.000000
  115        1.578433  -0.000000
  116        1.613838  -0.000000
  117        1.723720  -0.000000
  118        1.752847  -0.000000
  119        1.762220  -0.000000
  120        1.775211  -0.000000
  121        1.813589  -0.000000
  122        1.837600  -0.000000
  123        1.966715  -0.000000
  124        2.038736  -0.000000
  125        2.088324  -0.000000
  126        2.125456  -0.000000
  127        2.150531  -0.000000
  128        2.212120  -0.000000

  0.3742002E-15  0.9090909E-01  0.3596334E-15  0.6734007E-02
    1      -13.928023   1.000000
    2      -12.666889   1.000000
    3      -12.465032   1.000000
    4      -11.918108   1.000000
    5      -11.662935   1.000000
    6      -11.326773   1.000000
    7      -11.275635   1.000000
    8      -11.113994   1.000000
    9      -11.010850   1.000000
   10      -10.728938   1.000000
   11      -10.649762   1.000000
   12      -10.338669   1.000000
   13      -10.256910   1.000000
   14      -10.148632   1.000000
   15       -9.827192   1.000000
   16       -9.731724   1.000000
   17       -9.202984   1.000000
   18       -9.136431   1.000000
   19       -8.974890   1.000000
   20       -8.753631   1.000000
   21       -8.568758   1.000000
   22       -8.500737   1.000000
   23       -8.207780   1.000000
   24       -8.025049   1.000000
   25       -7.859885   1.000000
   26       -7.833761   1.000000
   27       -7.598593   1.000000
   28       -7.345140   1.000000
   29       -6.958650   1.000000
   30       -6.627519   1.000000
   31       -6.520495   1.000000
   32       -6.479091   1.000000
   33       -6.156426   1.000000
   34       -6.086040   1.000000
   35       -5.981519   1.000000
   36       -5.791656   1.000000
   37       -5.697469   1.000000
   38       -5.567783   1.000000
   39       -5.488614   1.000000
   40       -5.366410   1.000000
   41       -5.268596   1.000000
   42       -5.208779   1.000000
   43       -5.131242   1.000000
   44       -5.090207   1.000000
   45       -4.966106   1.000000
   46       -4.872866   1.000000
   47       -4.808165   1.000000
   48       -4.761444   1.000000
   49       -4.734041   1.000000
   50       -4.653612   1.000000
   51       -4.571146   1.000000
   52       -4.520885   1.000000
   53       -4.491927   1.000000
   54       -4.361890   1.000000
   55       -4.309676   1.000000
   56       -4.222004   1.000000
   57       -4.148273   1.000000
   58       -4.089527   1.000000
   59       -4.012333   1.000000
   60       -3.970458   1.000000
   61       -3.879905   1.000000
   62       -3.802146   1.000000
   63       -3.586507   1.000000
   64       -3.523259   1.000000
   65       -3.468262   1.000000
   66       -3.431442   1.000000
   67       -3.368151   1.000000
   68       -3.327835   1.000000
   69       -3.254752   1.000000
   70       -3.242464   1.000000
   71       -3.126310   1.000000
   72       -3.088686   1.000000
   73       -3.020068   1.000000
   74       -2.928682   1.000000
   75       -2.472672   1.000000
   76       -2.386294   1.000000
   77       -2.266041   1.000000
   78       -2.183142   1.000000
   79       -2.079055   1.000000
   80       -1.986298   1.000000
   81       -1.831968   1.000000
   82       -1.742829   1.000000
   83       -1.590953   1.000000
   84       -1.424593   1.000000
   85       -1.301573   1.000000
   86       -1.142078   1.000000
   87       -1.051538   1.000000
   88       -1.024697   1.000000
   89       -0.961555   1.000000
   90       -0.535520   1.000000
   91       -0.306224   1.000001
   92       -0.176465   1.001476
   93       -0.090854   1.023581
   94       -0.000216   0.953607
   95        0.051233   0.639963
   96        0.133185   0.058199
   97        0.163340  -0.019548
   98        0.330370  -0.000656
   99        0.429463  -0.000002
  100        0.542386  -0.000000
  101        0.690908  -0.000000
  102        0.726933  -0.000000
  103        0.788039  -0.000000
  104        0.935641  -0.000000
  105        0.957356  -0.000000
  106        0.994207  -0.000000
  107        1.173654  -0.000000
  108        1.208714  -0.000000
  109        1.332933  -0.000000
  110        1.358926  -0.000000
  111        1.407006  -0.000000
  112        1.429830  -0.000000
  113        1.515368  -0.000000
  114        1.524962  -0.000000
  115        1.633641  -0.000000
  116        1.672607  -0.000000
  117        1.738623  -0.000000
  118        1.779210  -0.000000
  119        1.855382  -0.000000
  120        1.924301  -0.000000
  121        1.949898  -0.000000
  122        2.017374  -0.000000
  123        2.047560  -0.000000
  124        2.098736  -0.000000
  125        2.174786  -0.000000
  126        2.258971  -0.000000
  127        2.316399  -0.000000
  128        2.364131  -0.000000

  0.1111111E+00  0.9090909E-01  0.4822234E-15  0.6734007E-02
    1      -13.879302   1.000000
    2      -12.674129   1.000000
    3      -12.595925   1.000000
    4      -11.852715   1.000000
    5      -11.638368   1.000000
    6      -11.372792   1.000000
    7      -11.222543   1.000000
    8      -11.130006   1.000000
    9      -11.027204   1.000000
   10      -10.723011   1.000000
   11      -10.597564   1.000000
   12      -10.366024   1.000000
   13      -10.264400   1.000000
   14      -10.159363   1.000000
   15       -9.819498   1.000000
   16       -9.702281   1.000000
   17       -9.215643   1.000000
   18       -9.089595   1.000000
   19       -8.971338   1.000000
   20       -8.792486   1.000000
   21       -8.605351   1.000000
   22       -8.528041   1.000000
   23       -8.230188   1.000000
   24       -8.014147   1.000000
   25       -7.889234   1.000000
   26       -7.855362   1.000000
   27       -7.672515   1.000000
   28       -7.411488   1.000000
   29       -6.916007   1.000000
   30       -6.651786   1.000000
   31       -6.426788   1.000000
   32       -6.381074   1.000000
   33       -6.135459   1.000000
   34       -6.091953   1.000000
   35       -5.972165   1.000000
   36       -5.777897   1.000000
   37       -5.741794   1.000000
   38       -5.575771   1.000000
   39       -5.428454   1.000000
   40       -5.347601   1.000000
   41       -5.277305   1.000000
   42       -5.207402   1.000000
   43       -5.119646   1.000000
   44       -5.046923   1.000000
   45       -4.971406   1.000000
   46       -4.843991   1.000000
   47       -4.812662   1.000000
   48       -4.722184   1.000000
   49       -4.665980   1.000000
   50       -4.642582   1.000000
   51       -4.530680   1.000000
   52       -4.492639   1.000000
   53       -4.468717   1.000000
   54       -4.390798   1.000000
   55       -4.289301   1.000000
   56       -4.235194   1.000000
   57       -4.186810   1.000000
   58       -4.115033   1.000000
   59       -3.995436   1.000000
   60       -3.951185   1.000000
   61       -3.893966   1.000000
   62       -3.765266   1.000000
   63       -3.616293   1.000000
   64       -3.562261   1.000000
   65       -3.488280   1.000000
   66       -3.471561   1.000000
   67       -3.346669   1.000000
   68       -3.330145   1.000000
   69       -3.243804   1.000000
   70       -3.206076   1.000000
   71       -3.181693   1.000000
   72       -3.071709   1.000000
   73       -3.040883   1.000000
   74       -2.950497   1.000000
   75       -2.505886   1.000000
   76       -2.408125   1.000000
   77       -2.275548   1.000000
   78       -2.241843   1.000000
   79       -2.074589   1.000000
   80       -2.027048   1.000000
   81       -1.866980   1.000000
   82       -1.741381   1.000000
   83       -1.506487   1.000000
   84       -1.436232   1.000000
   85       -1.370967   1.000000
   86       -1.125130   1.000000
   87       -0.999399   1.000000
   88       -0.938429   1.000000
   89       -0.837523   1.000000
   90       -0.617259   1.000000
   91       -0.319633   1.000000
   92       -0.222980   1.000153
   93       -0.104257   1.017561
   94       -0.038161   1.030418
   95        0.082160   0.381745
   96        0.169100  -0.026200
   97        0.200102  -0.034217
   98        0.291031  -0.003549
   99        0.384273  -0.000037
  100        0.581082  -0.000000
  101        0.693023  -0.000000
  102        0.735873  -0.000000
  103        0.810302  -0.000000
  104        0.931592  -0.000000
  105        0.991163  -0.000000
  106        1.000362  -0.000000
  107        1.232808  -0.000000
  108        1.267234  -0.000000
  109        1.296197  -0.000000
  110        1.351059  -0.000000
  111        1.430871  -0.000000
  112        1.464330  -0.000000
  113        1.546989  -0.000000
  114        1.565127  -0.000000
  115        1.631193  -0.000000
  116        1.663359  -0.000000
  117        1.697011  -0.000000
  118        1.784223  -0.000000
  119        1.850872  -0.000000
  120        1.900788  -0.000000
  121        1.939834  -0.000000
  122        1.977255  -0.000000