   46   46   40    1
  0.2568611E+02  0.8645320E-09  0.6085000E-09  0.2593596E-08  0.5000000E-15
   1.0000000000000000E-004
  CAR 
 Name                                    
    176    149    114

  0.3742002E-15  0.3742002E-15  0.3742002E-15  0.3367003E-02
    1      -14.170616   1.000000
    2      -12.874112   1.000000
    3      -12.614800   1.000000
    4      -12.105956   1.000000
    5      -11.677357   1.000000
    6      -11.444852   1.000000
    7      -11.270159   1.000000
    8      -11.080614   1.000000
    9      -10.970643   1.000000
   10      -10.949994   1.000000
   11      -10.801299   1.000000
   12      -10.502993   1.000000
   13      -10.346350   1.000000
   14      -10.272667   1.000000
   15       -9.871257   1.000000
   16       -9.527758   1.000000
   17       -9.101241   1.000000
   18       -8.982197   1.000000
   19       -8.852893   1.000000
   20       -8.611372   1.000000
   21       -8.415251   1.000000
   22       -8.405063   1.000000
   23       -8.246436   1.000000
   24       -8.117718   1.000000
   25       -7.763415   1.000000
   26       -7.760204   1.000000
   27       -7.484584   1.000000
   28       -7.182853   1.000000
   29       -6.560810   1.000000
   30       -6.457311   1.000000
   31       -6.397599   1.000000
   32       -6.314141   1.000000
   33       -6.174971   1.000000
   34       -5.992529   1.000000
   35       -5.890762   1.000000
   36       -5.811482   1.000000
   37       -5.703003   1.000000
   38       -5.581435   1.000000
   39       -5.398998   1.000000
   40       -5.272051   1.000000
   41       -5.259697   1.000000
   42       -5.168543   1.000000
   43       -5.106971   1.000000
   44       -4.993905   1.000000
   45       -4.935507   1.000000
   46       -4.822314   1.000000
   47       -4.761673   1.000000
   48       -4.588151   1.000000
   49       -4.582691   1.000000
   50       -4.447153   1.000000
   51       -4.426984   1.000000
   52       -4.216360   1.000000
   53       -4.194186   1.000000
   54       -4.166872   1.000000
   55       -4.085976   1.000000
   56       -3.987455   1.000000
   57       -3.925304   1.000000
   58       -3.871039   1.000000
   59       -3.726739   1.000000
   60       -3.690005   1.000000
   61       -3.561565   1.000000
   62       -3.482379   1.000000
   63       -3.450015   1.000000
   64       -3.243617   1.000000
   65       -3.219335   1.000000
   66       -3.074110   1.000000
   67       -3.018026   1.000000
   68       -2.949965   1.000000
   69       -2.785744   1.000000
   70       -2.735189   1.000000
   71       -2.688496   1.000000
   72       -2.593662   1.000000
   73       -2.519321   1.000000
   74       -2.443164   1.000000
   75       -2.023738   1.000000
   76       -1.886726   1.000000
   77       -1.786543   1.000000
   78       -1.678983   1.000000
   79       -1.629877   1.000000
   80       -1.522906   1.000000
   81       -1.359467   1.000000
   82       -1.180227   1.000008
   83       -1.060169   1.000258
   84       -0.826657   1.021060
   85       -0.795018   1.028293
   86       -0.715936   1.032127
   87       -0.563619   0.762069
   88       -0.454907   0.322587
   89       -0.226064  -0.033151
   90       -0.161808  -0.019402
   91       -0.151718  -0.017217
   92       -0.064354  -0.004480
   93        0.010618  -0.000955
   94        0.140223  -0.000031
   95        0.244844  -0.000001
   96        0.262126  -0.000001
   97        0.383574  -0.000000
   98        0.395713  -0.000000
   99        0.511037  -0.000000
  100        0.553871  -0.000000
  101        0.579548  -0.000000
  102        0.757735  -0.000000
  103        0.763959  -0.000000
  104        0.923757  -0.000000
  105        0.948545  -0.000000
  106        0.994718  -0.000000
  107        1.024895  -0.000000
  108        1.107573  -0.000000
  109        1.132193  -0.000000
  110        1.238917  -0.000000
  111        1.365925  -0.000000
  112        1.388680  -0.000000
  113        1.504545  -0.000000
  114        1.672308  -0.000000

  0.1111111E+00  0.3729374E-15  0.3860503E-15  0.6734007E-02
    1      -14.147380   1.000000
    2      -12.891417   1.000000
    3      -12.684927   1.000000
    4      -12.044834   1.000000
    5      -11.659552   1.000000
    6      -11.440224   1.000000
    7      -11.307774   1.000000
    8      -11.092051   1.000000
    9      -10.970521   1.000000
   10      -10.939795   1.000000
   11      -10.793547   1.000000
   12      -10.504055   1.000000
   13      -10.313583   1.000000
   14      -10.267041   1.000000
   15       -9.851229   1.000000
   16       -9.543036   1.000000
   17       -9.103347   1.000000
   18       -8.980774   1.000000
   19       -8.850476   1.000000
   20       -8.648864   1.000000
   21       -8.491158   1.000000
   22       -8.424108   1.000000
   23       -8.238693   1.000000
   24       -8.059123   1.000000
   25       -7.778037   1.000000
   26       -7.767331   1.000000
   27       -7.562707   1.000000
   28       -7.180936   1.000000
   29       -6.515387   1.000000
   30       -6.418258   1.000000
   31       -6.361995   1.000000
   32       -6.276546   1.000000
   33       -6.162649   1.000000
   34       -5.962992   1.000000
   35       -5.900273   1.000000
   36       -5.849667   1.000000
   37       -5.707036   1.000000
   38       -5.563127   1.000000
   39       -5.426887   1.000000
   40       -5.259357   1.000000
   41       -5.230901   1.000000
   42       -5.158929   1.000000
   43       -5.054024   1.000000
   44       -4.993862   1.000000
   45       -4.923777   1.000000
   46       -4.820867   1.000000
   47       -4.753209   1.000000
   48       -4.612278   1.000000
   49       -4.552974   1.000000
   50       -4.442092   1.000000
   51       -4.409663   1.000000
   52       -4.217935   1.000000
   53       -4.201545   1.000000
   54       -4.155790   1.000000
   55       -4.106268   1.000000
   56       -3.981650   1.000000
   57       -3.942162   1.000000
   58       -3.866812   1.000000
   59       -3.776347   1.000000
   60       -3.682386   1.000000
   61       -3.563830   1.000000
   62       -3.529112   1.000000
   63       -3.465873   1.000000
   64       -3.242144   1.000000
   65       -3.199676   1.000000
   66       -3.053674   1.000000
   67       -3.006161   1.000000
   68       -2.945649   1.000000
   69       -2.826040   1.000000
   70       -2.771563   1.000000
   71       -2.723016   1.000000
   72       -2.573782   1.000000
   73       -2.511483   1.000000
   74       -2.432526   1.000000
   75       -2.090992   1.000000
   76       -1.878412   1.000000
   77       -1.772009   1.000000
   78       -1.695969   1.000000
   79       -1.595895   1.000000
   80       -1.487966   1.000000
   81       -1.335804   1.000000
   82       -1.204558   1.000003
   83       -1.056432   1.000284
   84       -0.874896   1.011388
   85       -0.794600   1.028385
   86       -0.698670   1.025513
   87       -0.577169   0.807928
   88       -0.439446   0.263917
   89       -0.233988  -0.034242
   90       -0.172205  -0.021750
   91       -0.125897  -0.012230
   92       -0.040502  -0.002842
   93        0.041238  -0.000462
   94        0.120501  -0.000055
   95        0.253202  -0.000001
   96        0.273298  -0.000000
   97        0.380276  -0.000000
   98        0.401283  -0.000000
   99        0.492660  -0.000000
  100        0.560671  -0.000000
  101        0.608422  -0.000000
  102        0.769217  -0.000000
  103        0.781816  -0.000000
  104        0.938456  -0.000000
  105        0.980683  -0.000000
  106        1.000044  -0.000000
  107        1.035172  -0.000000
  108        1.113471  -0.000000
  109        1.148653  -0.000000
  110        1.232288  -0.000000
  111        1.345791  -0.000000
  112        1.398919  -0.000000
  113        1.504044  -0.000000
  114        1.631782  -0.000000

  0.2222222E+00  0.3922785E-15  0.3630220E-15  0.6734007E-02
    1      -14.079901   1.000000
    2      -13.027903   1.000000
    3      -12.708839   1.000000
    4      -11.979794   1.000000
    5      -11.609067   1.000000
    6      -11.429240   1.000000
    7      -11.376417   1.000000
    8      -11.116202   1.000000
    9      -10.972937   1.000000
   10      -10.916678   1.000000
   11      -10.771112   1.000000
   12      -10.511538   1.000000
   13      -10.268270   1.000000
   14      -10.221528   1.000000
   15       -9.789936   1.000000
   16       -9.586231   1.000000
   17       -9.104944   1.000000
   18       -8.975886   1.000000
   19       -8.831464   1.000000
   20       -8.760807   1.000000
   21       -8.666557   1.000000
   22       -8.444182   1.000000
   23       -8.235069   1.000000
   24       -7.949047   1.000000
   25       -7.821625   1.000000
   26       -7.790493   1.000000
   27       -7.683933   1.000000
   28       -7.156180   1.000000
   29       -6.454500   1.000000
   30       -6.372860   1.000000
   31       -6.316718   1.000000
   32       -6.219978   1.000000
   33       -6.141590   1.000000
   34       -6.019085   1.000000
   35       -5.881137   1.000000
   36       -5.782496   1.000000
   37       -5.625141   1.000000
   38       -5.520788   1.000000
   39       -5.401602   1.000000
   40       -5.266403   1.000000
   41       -5.215129   1.000000
   42       -5.136228   1.000000
   43       -5.047450   1.000000
   44       -4.926666   1.000000
   45       -4.878979   1.000000
   46       -4.796829   1.000000
   47       -4.728212   1.000000
   48       -4.635757   1.000000
   49       -4.516145   1.000000
   50       -4.425448   1.000000
   51       -4.377913   1.000000
   52       -4.267319   1.000000
   53       -4.203191   1.000000
   54       -4.143724   1.000000
   55       -4.111912   1.000000
   56       -3.976822   1.000000
   57       -3.960231   1.000000
   58       -3.873778   1.000000
   59       -3.829770   1.000000
   60       -3.695985   1.000000
   61       -3.656962   1.000000
   62       -3.556857   1.000000
   63       -3.483201   1.000000
   64       -3.229567   1.000000
   65       -3.209165   1.000000
   66       -3.050725   1.000000
   67       -3.032983   1.000000
   68       -2.957010   1.000000
   69       -2.903579   1.000000
   70       -2.847953   1.000000
   71       -2.735827   1.000000
   72       -2.515776   1.000000
   73       -2.484165   1.000000
   74       -2.401931   1.000000
   75       -2.214798   1.000000
   76       -1.873996   1.000000
   77       -1.763215   1.000000
   78       -1.736750   1.000000
   79       -1.618725   1.000000
   80       -1.325854   1.000000
   81       -1.280195   1.000000
   82       -1.249069   1.000001
   83       -1.049756   1.000337
   84       -0.996540   1.001194
   85       -0.815429   1.023642
   86       -0.634424   0.953625
   87       -0.602231   0.881709
   88       -0.406640   0.154784
   89       -0.205675  -0.029341
   90       -0.172936  -0.021918
   91       -0.056235  -0.003852
   92       -0.036942  -0.002647
   93        0.075072  -0.000195
   94        0.098096  -0.000104
   95        0.248833  -0.000001
   96        0.305794  -0.000000
   97        0.388030  -0.000000
   98        0.410301  -0.000000
   99        0.493440  -0.000000
  100        0.556820  -0.000000
  101        0.657851  -0.000000
  102        0.813218  -0.000000
  103        0.831174  -0.000000
  104        0.951883  -0.000000
  105        1.010610  -0.000000
  106        1.050371  -0.000000
  107        1.074600  -0.000000
  108        1.139770  -0.000000
  109        1.165934  -0.000000
  110        1.262664  -0.000000
  111        1.342073  -0.000000
  112        1.410276  -0.000000
  113        1.472499  -0.000000
  114        1.542939  -0.000000

  0.3333333E+00  0.3713828E-15  0.3468587E-15  0.6734007E-02
    1      -13.977677   1.000000
    2      -13.235555   1.000000
    3      -12.646820   1.000000
    4      -12.004826   1.000000
    5      -11.544647   1.000000
    6      -11.426110   1.000000
    7      -11.401231   1.000000
    8      -11.138630   1.000000
    9      -10.977329   1.000000
   10      -10.892617   1.000000
   11      -10.743123   1.000000
   12      -10.535222   1.000000
   13      -10.271294   1.000000
   14      -10.099336   1.000000
   15       -9.694293   1.000000
   16       -9.646753   1.000000
   17       -9.104176   1.000000
   18       -9.001820   1.000000
   19       -8.935715   1.000000
   20       -8.853061   1.000000
   21       -8.718101   1.000000
   22       -8.456888   1.000000
   23       -8.241912   1.000000
   24       -8.065750   1.000000
   25       -7.827092   1.000000
   26       -7.767591   1.000000
   27       -7.646404   1.000000
   28       -7.059767   1.000000
   29       -6.611615   1.000000
   30       -6.424174   1.000000
   31       -6.370078   1.000000
   32       -6.164776   1.000000
   33       -6.060530   1.000000
   34       -5.911792   1.000000
   35       -5.785231   1.000000
   36       -5.660918   1.000000
   37       -5.521972   1.000000
   38       -5.479075   1.000000
   39       -5.374588   1.000000
   40       -5.297011   1.000000
   41       -5.209733   1.000000
   42       -5.112470   1.000000
   43       -5.012497   1.000000
   44       -4.913691   1.000000
   45       -4.806026   1.000000
   46       -4.761602   1.000000
   47       -4.683338   1.000000
   48       -4.613510   1.000000
   49       -4.507877   1.000000
   50       -4.437075   1.000000
   51       -4.366378   1.000000
   52       -4.315093   1.000000
   53       -4.227332   1.000000
   54       -4.120241   1.000000
   55       -4.078063   1.000000
   56       -3.994591   1.000000
   57       -3.945068   1.000000
   58       -3.898191   1.000000
   59       -3.830057   1.000000
   60       -3.811025   1.000000
   61       -3.648551   1.000000
   62       -3.568726   1.000000
   63       -3.470790   1.000000
   64       -3.280268   1.000000
   65       -3.261161   1.000000
   66       -3.205977   1.000000
   67       -3.106724   1.000000
   68       -3.037370   1.000000
   69       -2.914390   1.000000
   70       -2.828770   1.000000
   71       -2.719432   1.000000
   72       -2.482964   1.000000
   73       -2.428575   1.000000
   74       -2.341158   1.000000
   75       -2.247136   1.000000
   76       -1.927090   1.000000
   77       -1.809795   1.000000
   78       -1.739949   1.000000
   79       -1.626923   1.000000
   80       -1.431180   1.000000
   81       -1.269378   1.000000
   82       -1.158474   1.000016
   83       -1.021172   1.000678
   84       -0.974490   1.001923
   85       -0.806570   1.025689
   86       -0.632148   0.949395
   87       -0.545332   0.694508
   88       -0.373529   0.070381
   89       -0.237307  -0.034610
   90       -0.168518  -0.020909
   91       -0.095424  -0.007677
   92        0.042353  -0.000450
   93        0.057764  -0.000305
   94        0.153657  -0.000021
   95        0.236307  -0.000001
   96        0.269694  -0.000000
   97        0.416287  -0.000000
   98        0.468260  -0.000000
   99        0.577137  -0.000000
  100        0.588719  -0.000000
  101        0.672217  -0.000000
  102        0.856518  -0.000000
  103        0.889343  -0.000000
  104        0.958061  -0.000000
  105        1.011734  -0.000000
  106        1.082351  -0.000000
  107        1.138726  -0.000000
  108        1.176029  -0.000000
  109        1.207761  -0.000000
  110        1.309469  -0.000000
  111        1.355764  -0.000000
  112        1.419100  -0.000000
  113        1.552119  -0.000000
  114        1.624241  -0.000000

  0.4444444E+00  0.3870091E-15  0.3932070E-15  0.6734007E-02
    1      -13.875703   1.000000
    2      -13.399580   1.000000
    3      -12.582220   1.000000
    4      -12.068453   1.000000
    5      -11.494066   1.000000
    6      -11.431142   1.000000
    7      -11.396263   1.000000
    8      -11.151372   1.000000
    9      -10.980369   1.000000
   10      -10.877621   1.000000
   11      -10.722929   1.000000
   12      -10.563626   1.000000
   13      -10.268421   1.000000
   14       -9.991048   1.000000
   15       -9.706264   1.000000
   16       -9.597794   1.000000
   17       -9.121764   1.000000
   18       -9.091276   1.000000
   19       -9.023360   1.000000
   20       -8.931740   1.000000
   21       -8.606941   1.000000
   22       -8.449190   1.000000
   23       -8.309547   1.000000
   24       -8.185027   1.000000
   25       -7.838917   1.000000
   26       -7.780757   1.000000
   27       -7.468149   1.000000
   28       -6.962372   1.000000
   29       -6.803955   1.000000
   30       -6.563446   1.000000
   31       -6.388876   1.000000
   32       -6.134678   1.000000
   33       -5.957959   1.000000
   34       -5.749697   1.000000
   35       -5.712777   1.000000
   36       -5.630237   1.000000
   37       -5.542405   1.000000
   38       -5.411433   1.000000
   39       -5.361852   1.000000
   40       -5.269772   1.000000
   41       -5.226966   1.000000
   42       -5.104752   1.000000
   43       -4.961928   1.000000
   44       -4.909747   1.000000
   45       -4.805003   1.000000
   46       -4.694751   1.000000
   47       -4.621742   1.000000
   48       -4.579024   1.000000
   49       -4.528813   1.000000
   50       -4.490201   1.000000
   51       -4.419197   1.000000
   52       -4.303178   1.000000
   53       -4.231222   1.000000
   54       -4.094203   1.000000
   55       -4.055715   1.000000
   56       -4.009331   1.000000
   57       -3.921764   1.000000
   58       -3.891445   1.000000
   59       -3.870664   1.000000
   60       -3.800393   1.000000
   61       -3.631056   1.000000
   62       -3.543054   1.000000
   63       -3.480866   1.000000
   64       -3.416522   1.000000
   65       -3.349314   1.000000
   66       -3.273454   1.000000
   67       -3.214766   1.000000
   68       -3.033745   1.000000
   69       -2.915198   1.000000
   70       -2.802909   1.000000
   71       -2.746384   1.000000
   72       -2.497898   1.000000
   73       -2.358849   1.000000
   74       -2.253208   1.000000
   75       -2.200167   1.000000
   76       -1.994853   1.000000
   77       -1.858293   1.000000
   78       -1.741360   1.000000
   79       -1.615242   1.000000
   80       -1.558802   1.000000
   81       -1.280387   1.000000
   82       -1.221544   1.000002
   83       -0.944053   1.003540
   84       -0.889080   1.009197
   85       -0.753615   1.035045
   86       -0.573077   0.794495
   87       -0.478113   0.416647
   88       -0.348610   0.024920
   89       -0.279000  -0.032364
   90       -0.197128  -0.027475
   91       -0.122231  -0.011604
   92       -0.046619  -0.003204
   93        0.000411  -0.001202
   94        0.174403  -0.000011
   95        0.235011  -0.000001
   96        0.335226  -0.000000
   97        0.433983  -0.000000
   98        0.524370  -0.000000
   99        0.620893  -0.000000
  100        0.733767  -0.000000
  101        0.740950  -0.000000
  102        0.858942  -0.000000
  103        0.909275  -0.000000
  104        0.982750  -0.000000
  105        1.023685  -0.000000
  106        1.073275  -0.000000
  107        1.147387  -0.000000
  108        1.199163  -0.000000
  109        1.257422  -0.000000
  110        1.296442  -0.000000
  111        1.353016  -0.000000
  112        1.381401  -0.000000
  113        1.481749  -0.000000
  114        1.571620  -0.000000

  0.3742002E-15  0.9090909E-01  0.3596334E-15  0.6734007E-02
    1      -14.138404   1.000000
    2      -12.854007   1.000000
    3      -12.612152   1.000000
    4      -12.074470   1.000000
    5      -11.656408   1.000000
    6      -11.595809   1.000000
    7      -11.355425   1.000000
    8      -11.250875   1.000000
    9      -11.059997   1.000000
   10      -10.788554   1.000000
   11      -10.659604   1.000000
   12      -10.530717   1.000000
   13      -10.303244   1.000000
   14      -10.240067   1.000000
   15       -9.836867   1.000000
   16       -9.600694   1.000000
   17       -9.112781   1.000000
   18       -8.950524   1.000000
   19       -8.873274   1.000000
   20       -8.661482   1.000000
   21       -8.401886   1.000000
   22       -8.263227   1.000000
   23       -8.172654   1.000000
   24       -8.064819   1.000000
   25       -7.830146   1.000000
   26       -7.539215   1.000000
   27       -7.463810   1.000000
   28       -7.154807   1.000000
   29       -6.583544   1.000000
   30       -6.461774   1.000000
   31       -6.384859   1.000000
   32       -6.331928   1.000000
   33       -6.212805   1.000000
   34       -5.992469   1.000000
   35       -5.855988   1.000000
   36       -5.751739   1.000000
   37       -5.701641   1.000000
   38       -5.605769   1.000000
   39       -5.431058   1.000000
   40       -5.358356   1.000000
   41       -5.254902   1.000000
   42       -5.200226   1.000000
   43       -5.100455   1.000000
   44       -5.047422   1.000000
   45       -4.949661   1.000000
   46       -4.856894   1.000000
   47       -4.771453   1.000000
   48       -4.635395   1.000000
   49       -4.573978   1.000000
   50       -4.503015   1.000000
   51       -4.455613   1.000000
   52       -4.331524   1.000000
   53       -4.238105   1.000000
   54       -4.151715   1.000000
   55       -4.052540   1.000000
   56       -3.978395   1.000000
   57       -3.888808   1.000000
   58       -3.813450   1.000000
   59       -3.743650   1.000000
   60       -3.715978   1.000000
   61       -3.561057   1.000000
   62       -3.487700   1.000000
   63       -3.430148   1.000000
   64       -3.269534   1.000000
   65       -3.215512   1.000000
   66       -3.076847   1.000000
   67       -3.025869   1.000000
   68       -2.985660   1.000000
   69       -2.801979   1.000000
   70       -2.722153   1.000000
   71       -2.663397   1.000000
   72       -2.630034   1.000000
   73       -2.494835   1.000000
   74       -2.389524   1.000000
   75       -2.085972   1.000000
   76       -1.895931   1.000000
   77       -1.802136   1.000000
   78       -1.701706   1.000000
   79       -1.665283   1.000000
   80       -1.517334   1.000000
   81       -1.352442   1.000000
   82       -1.191599   1.000005
   83       -1.053482   1.000306
   84       -0.911206   1.006412
   85       -0.813054   1.024192
   86       -0.725223   1.034109
   87       -0.611970   0.906221
   88       -0.454941   0.322720
   89       -0.367927   0.058826
   90       -0.225446  -0.033055
   91       -0.164337  -0.019966
   92       -0.054590  -0.003734
   93        0.011062  -0.000945
   94        0.110263  -0.000074
   95        0.291698  -0.000000
   96        0.320168  -0.000000
   97        0.406938  -0.000000
   98        0.463329  -0.000000
   99        0.515173  -0.000000
  100        0.546660  -0.000000
  101        0.622317  -0.000000
  102        0.756932  -0.000000
  103        0.794687  -0.000000
  104        0.914674  -0.000000
  105        0.981544  -0.000000
  106        0.994309  -0.000000
  107        1.044774  -0.000000
  108        1.082313  -0.000000
  109        1.170054  -0.000000
  110        1.245107  -0.000000
  111        1.353715  -0.000000
  112        1.371453  -0.000000
  113        1.494110  -0.000000
  114        1.640185  -0.000000

  0.1111111E+00  0.9090909E-01  0.4822234E-15  0.6734007E-02
    1      -14.096720   1.000000
    2      -12.908157   1.000000
    3      -12.689705   1.000000
    4      -11.992652   1.000000
    5      -11.626545   1.000000
    6      -11.603541   1.000000
    7      -11.381698   1.000000
    8      -11.285170   1.000000
    9      -11.025262   1.000000
   10      -10.787425   1.000000
   11      -10.646874   1.000000
   12      -10.533953   1.000000
   13      -10.272637   1.000000
   14      -10.235834   1.000000
   15       -9.806134   1.000000
   16       -9.604663   1.000000
   17       -9.147895   1.000000
   18       -8.944023   1.000000
   19       -8.862469   1.000000
   20       -8.693522   1.000000
   21       -8.481426   1.000000
   22       -8.349979   1.000000
   23       -8.170313   1.000000
   24       -7.979183   1.000000
   25       -7.843022   1.000000
   26       -7.656053   1.000000
   27       -7.465378   1.000000
   28       -7.148073   1.000000
   29       -6.545554   1.000000
   30       -6.422282   1.000000
   31       -6.322074   1.000000
   32       -6.280088   1.000000
   33       -6.184885   1.000000
   34       -5.984724   1.000000
   35       -5.891329   1.000000
   36       -5.766812   1.000000
   37       -5.667428   1.000000
   38       -5.552459   1.000000
   39       -5.434777   1.000000
   40       -5.323529   1.000000
   41       -5.272832   1.000000
   42       -5.196780   1.000000
   43       -5.067324   1.000000
   44       -4.985326   1.000000
   45       -4.934177   1.000000
   46       -4.845398   1.000000
   47       -4.752916   1.000000
   48       -4.613255   1.000000
   49       -4.557084   1.000000
   50       -4.529398   1.000000
   51       -4.433795   1.000000
   52       -4.308911   1.000000
   53       -4.250669   1.000000
   54       -4.163088   1.000000
   55       -4.044438   1.000000
   56       -3.999724   1.000000
   57       -3.902794   1.000000
   58       -3.828682   1.000000
   59       -3.781662   1.000000
   60       -3.734294   1.000000
   61       -3.624867   1.000000
   62       -3.510181   1.000000
   63       -3.445524   1.000000
   64       -3.251303   1.000000
   65       -3.197622   1.000000
   66       -3.055727   1.000000
   67       -3.015670   1.000000
   68       -2.956272   1.000000
   69       -2.896256   1.000000
   70       -2.795355   1.000000
   71       -2.708056   1.000000
   72       -2.607553   1.000000
   73       -2.475130   1.000000
   74       -2.372668   1.000000
   75       -2.187923   1.000000
   76       -1.862809   1.000000
   77       -1.813531   1.000000
   78       -1.736702   1.000000
   79       -1.604004   1.000000
   80       -1.451005   1.000000
   81       -1.321330   1.000000
   82       -1.202816   1.000004
   83       -1.056715   1.000282
   84       -0.949132   1.003210
   85       -0.829662   1.020379
   86       -0.690424   1.020788
   87       -0.623370   0.931871
   88       -0.460316   0.343966
   89       -0.314005  -0.014641
   90       -0.209771  -0.030193
   91       -0.189135  -0.025658
   92       -0.045732  -0.003150
   93        0.051149  -0.000361
   94        0.106663  -0.000082
   95        0.277506  -0.000000
   96        0.320729  -0.000000
   97        0.412319  -0.000000
   98        0.478501  -0.000000
   99        0.503728  -0.000000
  100        0.589865  -0.000000
  101        0.643280  -0.000000
  102        0.758204  -0.000000
  103        0.841083  -0.000000
  104        0.947779  -0.000000
  105        0.989178  -0.000000
  106        1.023568  -0.000000
  107        1.048745  -0.000000
  108        1.106230  -0.000000
  109        1.171676  -0.000000
  110        1.247079  -0.000000
  111        1.333821  -0.000000
  112        1.403614  -0.000000
  113        1.509140  -0.000000
  114        1.605042  -0.000000

  0.2222222E+00  0.9090909E-01  0.3065600E-15  0.6734007E-02
    1      -14.013548   1.000000
    2      -13.090450   1.000000
    3      -12.665566   1.000000
    4      -11.962680   1.000000
    5      -11.622566   1.000000
    6      -11.565873   1.000000
    7      -11.407534   1.000000
    8      -11.320400   1.000000
    9      -10.961997   1.000000
   10      -10.779476   1.000000
   11      -10.635718   1.000000
   12      -10.547366   1.000000
   13      -10.264134   1.000000
   14      -10.193401   1.000000
   15       -9.744867   1.000000
   16       -9.598690   1.000000
   17       -9.221486   1.000000
   18       -8.987937   1.000000
   19       -8.796647   1.000000
   20       -8.726858   1.000000
   21       -8.597407   1.000000
   22       -8.457313   1.000000
   23       -8.193819   1.000000
   24       -7.973926   1.000000
   25       -7.836311   1.000000
   26       -7.718017   1.000000
   27       -7.453978   1.000000
   28       -7.105864   1.000000
   29       -6.551763   1.000000
   30       -6.443643   1.000000
   31       -6.309843   1.000000
   32       -6.251071   1.000000
   33       -6.130230   1.000000
   34       -5.968650   1.000000
   35       -5.839573   1.000000
   36       -5.662006   1.000000
   37       -5.614060   1.000000
   38       -5.495515   1.000000
   39       -5.407718   1.000000
   40       -5.338435   1.000000
   41       -5.267526   1.000000
   42       -5.135299   1.000000
   43       -5.037066   1.000000
   44       -4.950623   1.000000
   45       -4.892833   1.000000
   46       -4.823297   1.000000
   47       -4.693004   1.000000
   48       -4.603767   1.000000
   49       -4.577919   1.000000
   50       -4.500634   1.000000
   51       -4.414460   1.000000
   52       -4.301977   1.000000
   53       -4.231282   1.000000
   54       -4.165263   1.000000
   55       -4.057726   1.000000
   56       -4.029051   1.000000
   57       -3.900019   1.000000
   58       -3.879342   1.000000
   59       -3.817699   1.000000
   60       -3.753084   1.000000
   61       -3.691856   1.000000
   62       -3.562523   1.000000
   63       -3.433214   1.000000
   64       -3.295230   1.000000
   65       -3.213471   1.000000
   66       -3.119814   1.000000
   67       -3.023962   1.000000
   68       -2.989261   1.000000
   69       -2.924715   1.000000
   70       -2.874444   1.000000
   71       -2.726653   1.000000
   72       -2.545374   1.000000
   73       -2.446445   1.000000
   74       -2.344615   1.000000
   75       -2.277689   1.000000
   76       -1.910025   1.000000
   77       -1.843712   1.000000
   78       -1.735980   1.000000
   79       -1.593220   1.000000
   80       -1.360524   1.000000
   81       -1.282929   1.000000
   82       -1.171755   1.000010
   83       -1.072677   1.000186
   84       -1.007066   1.000942
   85       -0.839453   1.018214
   86       -0.709761   1.030231
   87       -0.562763   0.759046
   88       -0.453497   0.317079
   89       -0.272390  -0.033806
   90       -0.187484  -0.025278