   24   24    1    1
  0.2443449E+02  0.6078000E-09  0.6078000E-09  0.1833000E-08  0.5000000E-15
   1.0000000000000000E-004
  CAR 
 Name                                    
     88     41     60

  0.3742002E-15  0.3742002E-15  0.1262379E-14  0.1234568E-01
    1      -13.763983   1.000000
    2      -12.262829   1.000000
    3      -10.967801   1.000000
    4      -10.694686   1.000000
    5      -10.533988   1.000000
    6      -10.136702   1.000000
    7       -9.883275   1.000000
    8       -9.777103   1.000000
    9       -9.633223   1.000000
   10       -9.157323   1.000000
   11       -9.070836   1.000000
   12       -8.199828   1.000000
   13       -7.980356   1.000000
   14       -7.709457   1.000000
   15       -7.307501   1.000000
   16       -6.144359   1.000000
   17       -5.757490   1.000000
   18       -5.530472   1.000000
   19       -5.295066   1.000000
   20       -4.996950   1.000000
   21       -4.761915   1.000000
   22       -4.360935   1.000000
   23       -4.354290   1.000000
   24       -4.223646   1.000000
   25       -4.143901   1.000000
   26       -4.075895   1.000000
   27       -3.830305   1.000000
   28       -3.655901   1.000000
   29       -3.518256   1.000000
   30       -3.261263   1.000000
   31       -3.230799   1.000000
   32       -3.180481   1.000000
   33       -3.092997   1.000000
   34       -2.740648   1.000000
   35       -1.992825   1.000000
   36       -1.897138   1.000000
   37       -1.721648   1.000000
   38       -1.570514   1.000000
   39       -1.564272   1.000000
   40       -1.516606   1.000000
   41       -1.516409   1.000000
   42       -0.717459   1.029983
   43       -0.651668   1.033392
   44       -0.144027  -0.030967
   45       -0.070599  -0.014880
   46        0.267357  -0.000005
   47        0.380689  -0.000000
   48        0.456504  -0.000000
   49        0.642405  -0.000000
   50        0.665626  -0.000000
   51        0.759467  -0.000000
   52        0.789515  -0.000000
   53        0.879233  -0.000000
   54        0.972614  -0.000000
   55        0.985656  -0.000000
   56        1.128996  -0.000000
   57        1.216963  -0.000000
   58        1.297138  -0.000000
   59        2.427465  -0.000000
   60        2.961003  -0.000000

  0.1111111E+00  0.3756941E-15  0.1262379E-14  0.2469136E-01
    1      -13.710547   1.000000
    2      -12.231199   1.000000
    3      -11.101992   1.000000
    4      -10.782314   1.000000
    5      -10.714101   1.000000
    6      -10.260099   1.000000
    7       -9.821138   1.000000
    8       -9.721984   1.000000
    9       -9.429764   1.000000
   10       -9.073787   1.000000
   11       -9.002938   1.000000
   12       -8.211000   1.000000
   13       -7.779066   1.000000
   14       -7.549181   1.000000
   15       -7.242236   1.000000
   16       -6.172221   1.000000
   17       -5.847936   1.000000
   18       -5.545714   1.000000
   19       -5.329780   1.000000
   20       -4.964794   1.000000
   21       -4.754863   1.000000
   22       -4.486171   1.000000
   23       -4.379924   1.000000
   24       -4.292171   1.000000
   25       -4.194282   1.000000
   26       -4.057054   1.000000
   27       -3.828388   1.000000
   28       -3.718521   1.000000
   29       -3.564863   1.000000
   30       -3.456247   1.000000
   31       -3.220797   1.000000
   32       -3.068322   1.000000
   33       -2.930275   1.000000
   34       -2.655569   1.000000
   35       -2.379781   1.000000
   36       -2.141211   1.000000
   37       -1.825812   1.000000
   38       -1.698014   1.000000
   39       -1.621371   1.000000
   40       -1.219113   1.000000
   41       -1.089757   1.000015
   42       -0.777067   1.016677
   43       -0.704438   1.032453
   44       -0.265199   0.006106
   45       -0.173325  -0.035097
   46        0.118006  -0.000387
   47        0.261251  -0.000006
   48        0.434607  -0.000000
   49        0.600088  -0.000000
   50        0.662371  -0.000000
   51        0.735899  -0.000000
   52        0.774744  -0.000000
   53        0.912089  -0.000000
   54        0.991853  -0.000000
   55        1.030777  -0.000000
   56        1.096217  -0.000000
   57        1.179137  -0.000000
   58        1.404946  -0.000000
   59        2.543914  -0.000000
   60        3.142196  -0.000000

  0.2222222E+00  0.3431732E-15  0.1262379E-14  0.2469136E-01
    1      -13.552452   1.000000
    2      -12.141501   1.000000
    3      -11.525832   1.000000
    4      -10.947605   1.000000
    5      -10.848636   1.000000
    6      -10.508608   1.000000
    7       -9.893986   1.000000
    8       -9.638804   1.000000
    9       -9.087768   1.000000
   10       -8.928774   1.000000
   11       -8.573276   1.000000
   12       -8.059893   1.000000
   13       -7.534470   1.000000
   14       -7.127666   1.000000
   15       -6.981192   1.000000
   16       -6.301759   1.000000
   17       -6.081157   1.000000
   18       -5.598688   1.000000
   19       -5.317180   1.000000
   20       -4.949723   1.000000
   21       -4.868541   1.000000
   22       -4.696373   1.000000
   23       -4.627492   1.000000
   24       -4.440392   1.000000
   25       -4.352238   1.000000
   26       -4.030363   1.000000
   27       -3.921921   1.000000
   28       -3.747074   1.000000
   29       -3.628758   1.000000
   30       -3.498687   1.000000
   31       -3.170560   1.000000
   32       -3.030815   1.000000
   33       -2.939712   1.000000
   34       -2.647635   1.000000
   35       -2.512085   1.000000
   36       -2.427331   1.000000
   37       -1.860302   1.000000
   38       -1.756647   1.000000
   39       -1.727116   1.000000
   40       -1.120844   1.000006
   41       -0.956440   1.000603
   42       -0.876295   1.003415
   43       -0.771081   1.017943
   44       -0.462643   0.643019
   45       -0.173534  -0.035112
   46       -0.120620  -0.025914
   47        0.022517  -0.003235
   48        0.222907  -0.000021
   49        0.491120  -0.000000
   50        0.570619  -0.000000
   51        0.715888  -0.000000
   52        0.757473  -0.000000
   53        0.830217  -0.000000
   54        0.968701  -0.000000
   55        1.033258  -0.000000
   56        1.091565  -0.000000
   57        1.149124  -0.000000
   58        1.274638  -0.000000
   59        1.746974  -0.000000
   60        3.750161  -0.000000

  0.3333333E+00  0.3568756E-15  0.1262379E-14  0.2469136E-01
    1      -13.296482   1.000000
    2      -12.088114   1.000000
    3      -11.944859   1.000000
    4      -11.051975   1.000000
    5      -10.955148   1.000000
    6      -10.812667   1.000000
    7       -9.943796   1.000000
    8       -9.612279   1.000000
    9       -8.817518   1.000000
   10       -8.688436   1.000000
   11       -8.080245   1.000000
   12       -7.673421   1.000000
   13       -7.245900   1.000000
   14       -6.832814   1.000000
   15       -6.587239   1.000000
   16       -6.472137   1.000000
   17       -6.286189   1.000000
   18       -5.636140   1.000000
   19       -5.414271   1.000000
   20       -5.211600   1.000000
   21       -5.087315   1.000000
   22       -5.048649   1.000000
   23       -4.718178   1.000000
   24       -4.545567   1.000000
   25       -4.530560   1.000000
   26       -4.196725   1.000000
   27       -3.949560   1.000000
   28       -3.719227   1.000000
   29       -3.633458   1.000000
   30       -3.499141   1.000000
   31       -3.410547   1.000000
   32       -3.077441   1.000000
   33       -2.828552   1.000000
   34       -2.686500   1.000000
   35       -2.396829   1.000000
   36       -2.250358   1.000000
   37       -1.895218   1.000000
   38       -1.822592   1.000000
   39       -1.789087   1.000000
   40       -1.452366   1.000000
   41       -1.304921   1.000000
   42       -0.914882   1.001554
   43       -0.820505   1.009047
   44       -0.428411   0.500520
   45       -0.324217   0.118928
   46       -0.179429  -0.035401
   47       -0.061437  -0.013150
   48        0.024706  -0.003100
   49        0.269708  -0.000005
   50        0.306792  -0.000001
   51        0.679833  -0.000000
   52        0.767495  -0.000000
   53        0.781257  -0.000000
   54        0.907164  -0.000000
   55        0.997729  -0.000000
   56        1.195454  -0.000000
   57        1.213840  -0.000000
   58        1.340637  -0.000000
   59        1.666232  -0.000000
   60        1.997621  -0.000000

  0.4444444E+00  0.3276888E-15  0.1262379E-14  0.2469136E-01
    1      -12.957457   1.000000
    2      -12.517873   1.000000
    3      -11.854755   1.000000
    4      -11.106379   1.000000
    5      -11.071507   1.000000
    6      -10.985965   1.000000
    7       -9.966425   1.000000
    8       -9.611691   1.000000
    9       -8.642685   1.000000
   10       -8.486819   1.000000
   11       -7.817832   1.000000
   12       -7.115957   1.000000
   13       -6.882435   1.000000
   14       -6.813347   1.000000
   15       -6.726636   1.000000
   16       -6.478715   1.000000
   17       -6.183143   1.000000
   18       -5.984593   1.000000
   19       -5.552358   1.000000
   20       -5.307963   1.000000
   21       -5.243679   1.000000
   22       -4.980130   1.000000
   23       -4.864762   1.000000
   24       -4.764576   1.000000
   25       -4.652091   1.000000
   26       -4.351299   1.000000
   27       -4.090334   1.000000
   28       -3.848284   1.000000
   29       -3.632572   1.000000
   30       -3.433758   1.000000
   31       -3.276784   1.000000
   32       -3.040322   1.000000
   33       -2.799570   1.000000
   34       -2.643135   1.000000
   35       -2.277668   1.000000
   36       -2.117669   1.000000
   37       -1.960794   1.000000
   38       -1.908026   1.000000
   39       -1.755541   1.000000
   40       -1.631437   1.000000
   41       -1.540008   1.000000
   42       -1.205279   1.000000
   43       -0.809255   1.010740
   44       -0.404551   0.400341
   45       -0.370004   0.264608
   46       -0.242785  -0.015878
   47       -0.215980  -0.030391
   48        0.038119  -0.002372
   49        0.083860  -0.000879
   50        0.148769  -0.000175
   51        0.632738  -0.000000
   52        0.725219  -0.000000
   53        0.768114  -0.000000
   54        0.907595  -0.000000
   55        1.015826  -0.000000
   56        1.243367  -0.000000
   57        1.301345  -0.000000
   58        1.420652  -0.000000
   59        1.585278  -0.000000
   60        2.304629  -0.000000

  0.3742002E-15  0.1111111E+00  0.1262379E-14  0.2469136E-01
    1      -13.710547   1.000000
    2      -12.231193   1.000000
    3      -11.101960   1.000000
    4      -10.782069   1.000000
    5      -10.714522   1.000000
    6      -10.260334   1.000000
    7       -9.820356   1.000000
    8       -9.722147   1.000000
    9       -9.429767   1.000000
   10       -9.073941   1.000000
   11       -9.002943   1.000000
   12       -8.211110   1.000000
   13       -7.779162   1.000000
   14       -7.549020   1.000000
   15       -7.242255   1.000000
   16       -6.172243   1.000000
   17       -5.848005   1.000000
   18       -5.545480   1.000000
   19       -5.330056   1.000000
   20       -4.964774   1.000000
   21       -4.754783   1.000000
   22       -4.486339   1.000000
   23       -4.379354   1.000000
   24       -4.292151   1.000000
   25       -4.195048   1.000000
   26       -4.057026   1.000000
   27       -3.828800   1.000000
   28       -3.717922   1.000000
   29       -3.564741   1.000000
   30       -3.455798   1.000000
   31       -3.221066   1.000000
   32       -3.068341   1.000000
   33       -2.930471   1.000000
   34       -2.655497   1.000000
   35       -2.379651   1.000000
   36       -2.141589   1.000000
   37       -1.825688   1.000000
   38       -1.698062   1.000000
   39       -1.621302   1.000000
   40       -1.218714   1.000000
   41       -1.089983   1.000015
   42       -0.777070   1.016677
   43       -0.704503   1.032441
   44       -0.265308   0.006238
   45       -0.173148  -0.035085
   46        0.117904  -0.000388
   47        0.261584  -0.000006
   48        0.433981  -0.000000
   49        0.599892  -0.000000
   50        0.662951  -0.000000
   51        0.736532  -0.000000
   52        0.771368  -0.000000
   53        0.910039  -0.000000
   54        0.988198  -0.000000
   55        1.025476  -0.000000
   56        1.097564  -0.000000
   57        1.156952  -0.000000
   58        1.389745  -0.000000
   59        2.607854  -0.000000
   60        3.129196  -0.000000

  0.1111111E+00  0.1111111E+00  0.1262379E-14  0.2469136E-01
    1      -13.604742   1.000000
    2      -12.168833   1.000000
    3      -11.297931   1.000000
    4      -11.164713   1.000000
    5      -10.621064   1.000000
    6      -10.420465   1.000000
    7       -9.980369   1.000000
    8       -9.660102   1.000000
    9       -8.978175   1.000000
   10       -8.962099   1.000000
   11       -8.777305   1.000000
   12       -8.330088   1.000000
   13       -7.399494   1.000000
   14       -7.274427   1.000000
   15       -7.105330   1.000000
   16       -6.301517   1.000000
   17       -6.034066   1.000000
   18       -5.489282   1.000000
   19       -5.337500   1.000000
   20       -4.977726   1.000000
   21       -4.766402   1.000000
   22       -4.683677   1.000000
   23       -4.477341   1.000000
   24       -4.363990   1.000000
   25       -4.207361   1.000000
   26       -4.167522   1.000000
   27       -3.910748   1.000000
   28       -3.811068   1.000000
   29       -3.535214   1.000000
   30       -3.483965   1.000000
   31       -3.123868   1.000000
   32       -2.979169   1.000000
   33       -2.926298   1.000000
   34       -2.733208   1.000000
   35       -2.588510   1.000000
   36       -2.433355   1.000000
   37       -1.801135   1.000000
   38       -1.731001   1.000000
   39       -1.659196   1.000000
   40       -1.193198   1.000000
   41       -0.980044   1.000337
   42       -0.857528   1.004846
   43       -0.695618   1.033808
   44       -0.448495   0.585023
   45       -0.202550  -0.033843
   46       -0.081463  -0.017086
   47        0.089870  -0.000765
   48        0.284541  -0.000003
   49        0.573066  -0.000000
   50        0.612070  -0.000000
   51        0.757887  -0.000000
   52        0.806809  -0.000000
   53        0.869353  -0.000000
   54        0.945912  -0.000000
   55        1.003548  -0.000000
   56        1.044790  -0.000000
   57        1.110563  -0.000000
   58        1.115209  -0.000000
   59        1.642805  -0.000000
   60        3.509984  -0.000000

  0.2222222E+00  0.1111111E+00  0.1262379E-14  0.2469136E-01
    1      -13.397751   1.000000
    2      -12.061091   1.000000
    3      -11.736804   1.000000
    4      -11.390543   1.000000
    5      -10.681749   1.000000
    6      -10.568856   1.000000
    7      -10.142680   1.000000
    8       -9.502393   1.000000
    9       -8.942836   1.000000
   10       -8.540081   1.000000
   11       -8.398484   1.000000
   12       -8.064678   1.000000
   13       -7.132020   1.000000
   14       -6.894071   1.000000
   15       -6.670059   1.000000
   16       -6.592913   1.000000
   17       -6.159301   1.000000
   18       -5.508269   1.000000
   19       -5.349089   1.000000
   20       -5.170032   1.000000
   21       -5.145408   1.000000
   22       -4.876564   1.000000
   23       -4.658924   1.000000
   24       -4.434606   1.000000
   25       -4.381366   1.000000
   26       -4.189871   1.000000
   27       -4.003599   1.000000
   28       -3.895297   1.000000
   29       -3.440178   1.000000
   30       -3.416005   1.000000
   31       -3.326278   1.000000
   32       -3.056035   1.000000
   33       -2.931791   1.000000
   34       -2.712762   1.000000
   35       -2.605142   1.000000
   36       -2.319205   1.000000
   37       -1.845956   1.000000
   38       -1.793811   1.000000
   39       -1.674527   1.000000
   40       -1.411896   1.000000
   41       -1.254110   1.000000
   42       -0.937451   1.000941
   43       -0.639998   1.030185
   44       -0.478843   0.706526
   45       -0.301329   0.064983
   46       -0.192752  -0.035094
   47       -0.120750  -0.025944
   48        0.131563  -0.000274
   49        0.391341  -0.000000
   50        0.502900  -0.000000
   51        0.656658  -0.000000
   52        0.749576  -0.000000
   53        0.800853  -0.000000
   54        0.841619  -0.000000
   55        0.997504  -0.000000
   56        1.076860  -0.000000
   57        1.193701  -0.000000
   58        1.209749  -0.000000
   59        1.763399  -0.000000
   60        4.177922  -0.000000

  0.3333333E+00  0.1111111E+00  0.1262379E-14  0.2469136E-01
    1      -13.099158   1.000000
    2      -12.258791   1.000000
    3      -11.893939   1.000000
    4      -11.493633   1.000000
    5      -10.948836   1.000000
    6      -10.578063   1.000000
    7      -10.224304   1.000000
    8       -9.315434   1.000000
    9       -8.995208   1.000000
   10       -8.192673   1.000000
   11       -8.115499   1.000000
   12       -7.414050   1.000000
   13       -7.042464   1.000000
   14       -6.800971   1.000000
   15       -6.536139   1.000000
   16       -6.352542   1.000000
   17       -6.114995   1.000000
   18       -5.860769   1.000000
   19       -5.526983   1.000000
   20       -5.371272   1.000000
   21       -5.282217   1.000000
   22       -5.068844   1.000000
   23       -4.828410   1.000000
   24       -4.635638   1.000000
   25       -4.516526   1.000000
   26       -4.380837   1.000000
   27       -4.086233   1.000000
   28       -3.853180   1.000000
   29       -3.714004   1.000000
   30       -3.355477   1.000000
   31       -3.209859   1.000000
   32       -3.072262   1.000000
   33       -2.859238   1.000000
   34       -2.662695   1.000000
   35       -2.385761   1.000000
   36       -2.150539   1.000000
   37       -1.922250   1.000000
   38       -1.769239   1.000000
   39       -1.733916   1.000000
   40       -1.636535   1.000000
   41       -1.566330   1.000000
   42       -1.031311   1.000086
   43       -0.784638   1.015143
   44       -0.469993   0.672287
   45       -0.401425   0.387461
   46       -0.283248   0.031637
   47       -0.187015  -0.035404
   48        0.095561  -0.000669
   49        0.130937  -0.000279
   50        0.308013  -0.000001
   51        0.590552  -0.000000
   52        0.677865  -0.000000
   53        0.748649  -0.000000
   54        0.817710  -0.000000
   55        1.049687  -0.000000
   56        1.168523  -0.000000
   57        1.265519  -0.000000
   58        1.313560  -0.000000
   59        1.569212  -0.000000
   60        1.926035  -0.000000

  0.4444444E+00  0.1111111E+00  0.1262379E-14  0.2469136E-01
    1      -12.776788   1.000000
    2      -12.644331   1.000000
    3      -11.822993   1.000000
    4      -11.533302   1.000000
    5      -11.069692   1.000000
    6      -10.584171   1.000000
    7      -10.241754   1.000000
    8       -9.292840   1.000000
    9       -8.979268   1.000000
   10       -8.064978   1.000000
   11       -7.893618   1.000000
   12       -7.167574   1.000000
   13       -6.936981   1.000000
   14       -6.612478   1.000000
   15       -6.525802   1.000000
   16       -6.477455   1.000000
   17       -6.271529   1.000000
   18       -5.958294   1.000000
   19       -5.624599   1.000000
   20       -5.310387   1.000000
   21       -5.156476   1.000000
   22       -5.049577   1.000000
   23       -4.995383   1.000000
   24       -4.896043   1.000000
   25       -4.762835   1.000000
   26       -4.404533   1.000000
   27       -4.149388   1.000000
   28       -3.862910   1.000000
   29       -3.687911   1.000000
   30       -3.437573   1.000000
   31       -3.204196   1.000000
   32       -3.003804   1.000000
   33       -2.771449   1.000000
   34       -2.580131   1.000000
   35       -2.322279   1.000000
   36       -1.977141   1.000000
   37       -1.938825   1.000000
   38       -1.913987   1.000000
   39       -1.752405   1.000000
   40       -1.665515   1.000000
   41       -1.456226   1.000000
   42       -1.275262   1.000000
   43       -0.870535   1.003811
   44       -0.466193   0.657241
   45       -0.392894   0.352806
   46       -0.269495   0.011513
   47       -0.168303  -0.034673
   48       -0.120170  -0.025811
   49        0.114923  -0.000418
   50        0.226700  -0.000018
   51        0.560044  -0.000000
   52        0.650742  -0.000000
   53        0.734934  -0.000000
   54        0.828866  -0.000000
   55        1.078963  -0.000000
   56        1.200709  -0.000000
   57        1.279281  -0.000000
   58        1.356664  -0.000000
   59        1.466890  -0.000000
   60        1.761039  -0.000000

 -0.4444444E+00  0.1111111E+00  0.1262379E-14  0.2469136E-01
    1      -13.098072   1.000000
    2      -12.265705   1.000000
    3      -11.895228   1.000000
    4      -11.503547   1.000000
    5      -10.939103   1.000000
    6      -10.569103   1.000000
    7      -10.199151   1.000000
    8       -9.418208   1.000000
    9       -8.981375   1.000000
   10       -8.202417   1.000000
   11       -7.984338   1.000000
   12       -7.318183   1.000000
   13       -7.130580   1.000000
   14       -6.895706   1.000000
   15       -6.548127   1.000000
   16       -6.361120   1.000000
   17       -6.076375   1.000000
   18       -5.787444   1.000000
   19       -5.689995   1.000000
   20       -5.276373   1.000000
   21       -5.236801   1.000000
   22       -5.022573   1.000000
   23       -4.985461   1.000000
   24       -4.672312   1.000000
   25       -4.635460   1.000000
   26       -4.286180   1.000000
   27       -4.057504   1.000000
   28       -3.857671   1.000000
   29       -3.673835   1.000000
   30       -3.562592   1.000000
   31       -3.333248   1.000000
   32       -2.969583   1.000000
   33       -2.753499   1.000000
   34       -2.645069   1.000000
   35       -2.358949   1.000000
   36       -2.006835   1.000000
   37       -1.875390   1.000000
   38       -1.816265   1.000000
   39       -1.774636   1.000000
   40       -1.521092   1.000000
   41       -1.428487   1.000000
   42       -1.082491   1.000019
   43       -0.845002   1.006046
   44       -0.476110   0.696080
   45       -0.357854   0.221470
   46       -0.245060  -0.014093
   47       -0.132990  -0.028686
   48       -0.023567  -0.007402
   49        0.129821  -0.000287
   50        0.315613  -0.000001
   51        0.552817  -0.000000
   52        0.672725  -0.000000
   53        0.774555  -0.000000
   54        0.855391  -0.000000
   55        1.053931  -0.000000
   56        1.158514  -0.000000
   57        1.277082  -0.000000
   58        1.330113  -0.000000
   59        1.617398  -0.000000
   60        1.821654  -0.000000

 -0.3333333E+00  0.1111111E+00  0.1262379E-14  0.2469136E-01
    1      -13.397558   1.000000
    2      -12.067335   1.000000
    3      -11.750773   1.000000
    4      -11.391619   1.000000
    5      -10.692816   1.000000
    6      -10.537914   1.000000
    7      -10.081604   1.000000
    8       -9.567113   1.000000
    9       -9.131590   1.000000
   10       -8.492121   1.000000
   11       -8.277740   1.000000
   12       -7.808784   1.000000
   13       -7.438182   1.000000
   14       -6.857896   1.000000
   15       -6.765713   1.000000
   16       -6.401190   1.000000
   17       -6.091368   1.000000
   18       -5.731329   1.000000
   19       -5.439607   1.000000
   20       -5.129251   1.000000
   21       -4.977892   1.000000
   22       -4.870537   1.000000
   23       -4.765038   1.000000
   24       -4.602851   1.000000
   25       -4.449858   1.000000
   26       -4.169971   1.000000
   27       -3.956129   1.000000
   28       -3.742502   1.000000
   29       -3.650736   1.000000
   30       -3.491904   1.000000
   31       -3.345673   1.000000
   32       -3.111192   1.000000
   33       -2.775422   1.000000
   34       -2.651845   1.000000
   35       -2.481785   1.000000
   36       -2.224197   1.000000
   37       -1.922716   1.000000
   38       -1.754606   1.000000
   39       -1.659617   1.000000
   40       -1.291200   1.000000
   41       -1.090445   1.000015
   42       -0.922167   1.001326
   43       -0.729419   1.027399
   44       -0.447934   0.582688
   45       -0.259699  -0.000233
   46       -0.212563  -0.031480
   47       -0.090651  -0.019065
   48        0.147739  -0.000180
   49        0.280769  -0.000003
   50        0.526619  -0.000000
   51        0.580108  -0.000000
   52        0.743668  -0.000000
   53        0.828582  -0.000000
   54        0.869786  -0.000000
   55        1.012008  -0.000000
   56        1.132742  -0.000000
   57        1.188533  -0.000000
   58        1.287835  -0.000000
   59        1.691616  -0.000000
   60        1.883604  -0.000000

 -0.2222222E+00  0.1111111E+00  0.1262379E-14  0.2469136E-01
    1      -13.604883   1.000000
    2      -12.173077   1.000000
    3      -11.326764   1.000000
    4      -11.165026   1.000000
    5      -10.602283   1.000000
    6      -10.395876   1.000000
    7       -9.884197   1.000000
    8       -9.696188   1.000000
    9       -9.327131   1.000000
   10       -8.890543   1.000000
   11       -8.709874   1.000000
   12       -7.893592   1.000000
   13       -7.732278   1.000000
   14       -7.319684   1.000000
   15       -7.071076   1.000000
   16       -6.220960   1.000000
   17       -5.815166   1.000000
   18       -5.689605   1.000000
   19       -5.513815   1.000000
   20       -4.945287   1.000000
   21       -4.761676   1.000000
   22       -4.723131   1.000000
   23       -4.586303   1.000000
   24       -4.395585   1.000000
   25       -4.277916   1.000000
   26       -4.042007   1.000000
   27       -3.898445   1.000000
   28       -3.682174   1.000000
   29       -3.642390   1.000000
   30       -3.567584   1.000000
   31       -3.268645   1.000000
   32       -2.913234   1.000000
   33       -2.732476   1.000000
   34       -2.658821   1.000000
   35       -2.527692   1.000000
   36       -2.458716   1.000000
   37       -1.902670   1.000000
   38       -1.673159   1.000000
   39       -1.587885   1.000000
   40       -1.103338   1.000010
   41       -0.953702   1.000644
   42       -0.827112   1.008148
   43       -0.733553   1.026464
   44       -0.365129   0.246953
   45       -0.220024  -0.028901
   46       -0.025106  -0.007591
   47        0.052673  -0.001753
   48        0.304802  -0.000001
   49        0.460900  -0.000000
   50        0.630100  -0.000000
   51        0.693262  -0.000000
   52        0.824362  -0.000000
   53        0.888457  -0.000000
   54        0.914815  -0.000000
   55        1.009219  -0.000000
   56        1.132819  -0.000000
   57        1.166269  -0.000000
   58        1.557837  -0.000000
   59        2.395879  -0.000000
   60        3.554952  -0.000000

 -0.1111111E+00  0.1111111E+00  0.1262379E-14  0.2469136E-01
    1      -13.710641   1.000000
    2      -12.232734   1.000000
    3      -11.096439   1.000000
    4      -10.894353   1.000000
    5      -10.590040   1.000000
    6      -10.241046   1.000000
    7       -9.825654   1.000000
    8       -9.724870   1.000000
    9       -9.478384   1.000000
   10       -9.154079   1.000000
   11       -8.960090   1.000000
   12       -7.970385   1.000000
   13       -7.870251   1.000000
   14       -7.675671   1.000000
   15       -7.220539   1.000000
   16       -6.151880   1.000000
   17       -5.731062   1.000000
   18       -5.576264   1.000000
   19       -5.459351   1.000000
   20       -4.985663   1.000000
   21       -4.745512   1.000000
   22       -4.524602   1.000000
   23       -4.460764   1.000000
   24       -4.256378   1.000000
   25       -4.203602   1.000000
   26       -3.984880   1.000000
   27       -3.859941   1.000000
   28       -3.655250   1.000000
   29       -3.550397   1.000000
   30       -3.516895   1.000000
   31       -3.291667   1.000000
   32       -2.989632   1.000000
   33       -2.883659   1.000000
   34       -2.666186   1.000000
   35       -2.288976   1.000000
   36       -2.259194   1.000000
   37       -1.844800   1.000000
   38       -1.600560   1.000000
   39       -1.557262   1.000000
   40       -1.242204   1.000000
   41       -1.158897   1.000002
   42       -0.752771   1.022032
   43       -0.702241   1.032818
   44       -0.227607  -0.025477
   45       -0.162635  -0.034029
   46        0.186218  -0.000062
   47        0.240195  -0.000012
   48        0.369592  -0.000000
   49        0.574920  -0.000000
   50        0.664979  -0.000000
   51        0.703156  -0.000000
   52        0.848682  -0.000000
   53        0.936034  -0.000000
   54        0.937914  -0.000000
   55        0.980868  -0.000000
   56        1.124363  -0.000000
   57        1.167032  -0.000000
   58        1.343876  -0.000000
   59        2.295283  -0.000000
   60        3.099626  -0.000000

  0.3742002E-15  0.2222222E+00  0.1262379E-14  0.2469136E-01
    1      -13.552451   1.000000
    2      -12.141473   1.000000
    3      -11.525844   1.000000
    4      -10.947534   1.000000
    5      -10.848942   1.000000
    6      -10.508818   1.000000
    7       -9.893554   1.000000
    8       -9.638643   1.000000
    9       -9.087317   1.000000
   10       -8.928746   1.000000
   11       -8.573592   1.000000
   12       -8.060157   1.000000
   13       -7.534633   1.000000
   14       -7.127550   1.000000
   15       -6.981154   1.000000
   16       -6.301737   1.000000
   17       -6.081488   1.000000
   18       -5.598352   1.000000
   19       -5.317556   1.000000
   20       -4.949714   1.000000
   21       -4.867591   1.000000
   22       -4.697775   1.000000
   23       -4.627547   1.000000
   24       -4.439380   1.000000
   25       -4.352910   1.000000
   26       -4.030450   1.000000
   27       -3.922868   1.000000
   28       -3.745539   1.000000
   29       -3.628016   1.000000
   30       -3.499057   1.000000
   31       -3.170468   1.000000
   32       -3.030532   1.000000
   33       -2.940156   1.000000
   34       -2.647775   1.000000
   35       -2.512614   1.000000