    3    3   60    1
  0.8144830E+01  0.3039000E-09  0.3039000E-09  0.3055000E-09  0.5000000E-15
   1.0000000000000000E-004
  CAR 
 Name                                    
     12    216     10

  0.3742002E-15  0.3742002E-15  0.3742002E-15  0.2962963E-03
    1       -5.320665   1.000000
    2        4.593713   1.000000
    3        4.593715   1.000000
    4        6.227455   1.000000
    5        6.886629   1.000000
    6        9.327347   1.000000
    7        9.327348   1.000000
    8       13.128555  -0.000000
    9       14.306314   0.000000
   10       14.306324   0.000000

  0.6666667E-01  0.3766815E-15  0.3742002E-15  0.1777778E-02
    1       -5.228741   1.000000
    2        4.382583   1.000000
    3        4.638756   1.000000
    4        6.274674   1.000000
    5        6.527085   1.000000
    6        9.289491   1.000000
    7        9.776498   1.000000
    8       12.446875  -0.000000
    9       12.538032  -0.000000
   10       14.950230   0.000000

  0.1333333E+00  0.3754153E-15  0.3742002E-15  0.1777778E-02
    1       -4.957534   1.000000
    2        3.822194   1.000000
    3        4.759267   1.000000
    4        5.843028   1.000000
    5        6.375534   1.000000
    6        9.184285   1.000000
    7       10.701680  -0.008372
    8       11.522536  -0.000000
    9       11.807891  -0.000000
   10       15.780815   0.000000

  0.2000000E+00  0.3870416E-15  0.3742002E-15  0.1777778E-02
    1       -4.520230   1.000000
    2        3.055871   1.000000
    3        4.914842   1.000000
    4        5.165285   1.000000
    5        6.397276   1.000000
    6        9.033989   1.000000
    7       10.920668  -0.000000
    8       11.299670  -0.000000
    9       11.665756  -0.000000
   10       16.352840   0.000000

  0.2666667E+00  0.4120044E-15  0.3742002E-15  0.1777778E-02
    1       -3.937289   1.000000
    2        2.194251   1.000000
    3        4.588484   1.000000
    4        5.054823   1.000000
    5        6.190291   1.000000
    6        8.867811   1.000000
    7       10.887651  -0.000000
    8       11.054112  -0.000000
    9       12.339920  -0.000000
   10       16.407320   0.000000

  0.3333333E+00  0.4025434E-15  0.3742002E-15  0.1777778E-02
    1       -3.235318   1.000000
    2        1.295190   1.000000
    3        4.143387   1.000000
    4        5.144236   1.000000
    5        5.798510   1.000000
    6        8.714719   1.000000
    7       11.040176  -0.000000
    8       11.409285  -0.000000
    9       12.507842  -0.000000
   10       16.925185   0.000000

  0.4000000E+00  0.3732510E-15  0.3742002E-15  0.1777778E-02
    1       -2.449477   1.000000
    2        0.389895   1.000000
    3        3.842423   1.000000
    4        5.182442   1.000000
    5        5.417699   1.000000
    6        8.598760   1.000000
    7       11.157262  -0.000000
    8       12.236020  -0.000000
    9       12.381732  -0.000000
   10       16.964762   0.000000

  0.4666667E+00  0.3915456E-15  0.3742002E-15  0.1777778E-02
    1       -1.666254   1.000000
    2       -0.448735   1.000000
    3        3.690950   1.000000
    4        5.191846   1.000000
    5        5.195387   1.000000
    6        8.536561   1.000000
    7       11.267177  -0.000000
    8       12.256764  -0.000000
    9       12.957692  -0.000000
   10       16.824328   0.000000

  0.6666667E-01  0.6666667E-01  0.3742002E-15  0.1777778E-02
    1       -5.047121   1.000000
    2        4.010186   1.000000
    3        4.704180   1.000000
    4        6.035581   1.000000
    5        6.354345   1.000000
    6        9.198156   1.000000
    7       10.455774   0.855158
    8       11.788596  -0.000000
    9       11.942735  -0.000000
   10       15.768020   0.000000

  0.1333333E+00  0.6666667E-01  0.3742002E-15  0.3555556E-02
    1       -4.692516   1.000000
    2        3.379216   1.000000
    3        4.779272   1.000000
    4        5.409132   1.000000
    5        6.459248   1.000000
    6        9.017491   1.000000
    7       11.021744  -0.000000
    8       11.421237  -0.000000
    9       11.488118  -0.000000
   10       16.345727   0.000000

  0.2000000E+00  0.6666667E-01  0.3742002E-15  0.3555556E-02
    1       -4.181304   1.000000
    2        2.601930   1.000000
    3        4.794966   1.000000
    4        4.828491   1.000000
    5        6.489245   1.000000
    6        8.785751   1.000000
    7       10.527993   0.296533
    8       11.362011  -0.000000
    9       12.333395  -0.000000
   10       16.347390   0.000000

  0.2666667E+00  0.6666667E-01  0.3742002E-15  0.3555556E-02
    1       -3.536352   1.000000
    2        1.752582   1.000000
    3        4.354717   1.000000
    4        4.694747   1.000000
    5        6.393428   1.000000
    6        8.544230   1.000000
    7       10.449868   0.887419
    8       11.592481  -0.000000
    9       12.848615  -0.000000
   10       16.425430   0.000000

  0.3333333E+00  0.6666667E-01  0.3742002E-15  0.3555556E-02
    1       -2.786829   1.000000
    2        0.869014   1.000000
    3        4.009618   1.000000
    4        4.503881   1.000000
    5        6.241394   1.000000
    6        8.334149   1.000000
    7       10.682175  -0.014796
    8       12.100699  -0.000000
    9       12.893276  -0.000000
   10       17.147095   0.000000

  0.4000000E+00  0.6666667E-01  0.3742002E-15  0.3555556E-02
    1       -1.977697   1.000000
    2       -0.013900   1.000000
    3        3.801041   1.000000
    4        4.325065   1.000000
    5        6.123428   1.000000
    6        8.191438   1.000000
    7       10.978717  -0.000000
    8       12.680769  -0.000000
    9       12.780826  -0.000000
   10       17.126106   0.000000

  0.4666667E+00  0.6666667E-01  0.3742002E-15  0.1777778E-02
    1       -1.379342   1.000000
    2       -0.635675   1.000000
    3        3.731381   1.000000
    4        4.253847   1.000000
    5        6.080782   1.000000
    6        8.140902   1.000000
    7       11.109255  -0.000000
    8       12.725169  -0.000000
    9       12.963401  -0.000000
   10       17.065132   0.000000

  0.1333333E+00  0.1333333E+00  0.3742002E-15  0.1777778E-02
    1       -4.263168   1.000000
    2        2.793154   1.000000
    3        4.612198   1.000000
    4        4.936059   1.000000
    5        6.646236   1.000000
    6        8.680814   1.000000
    7       10.390009   1.033927
    8       11.485867  -0.000000
    9       12.412151  -0.000000
   10       16.310925   0.000000

  0.2000000E+00  0.1333333E+00  0.3742002E-15  0.3555556E-02
    1       -3.687168   1.000000
    2        2.110047   1.000000
    3        4.260585   1.000000
    4        4.526286   1.000000
    5        6.891908   1.000000
    6        8.264536   1.000000
    7        9.936169   1.000000
    8       11.794806  -0.000000
    9       13.363794   0.000000
   10       16.041274   0.000000

  0.2666667E+00  0.1333333E+00  0.3742002E-15  0.3555556E-02
    1       -2.988287   1.000000
    2        1.347531   1.000000
    3        3.849430   1.000000
    4        4.217490   1.000000
    5        7.040945   1.000000
    6        7.857188   1.000000
    7        9.887796   1.000000
    8       12.231337  -0.000000
    9       13.851634   0.000000
   10       16.389875   0.000000

  0.3333333E+00  0.1333333E+00  0.3742002E-15  0.3555556E-02
    1       -2.197977   1.000000
    2        0.519616   1.000000
    3        3.510438   1.000000
    4        4.017298   1.000000
    5        7.034422   1.000000
    6        7.535517   1.000000
    7       10.228333   1.000357
    8       12.556707  -0.000000
    9       13.879780   0.000000
   10       17.212156   0.000000

  0.4000000E+00  0.1333333E+00  0.3742002E-15  0.3555556E-02
    1       -1.382744   1.000000
    2       -0.315120   1.000000
    3        3.324684   1.000000
    4        3.920410   1.000000
    5        6.985161   1.000000
    6        7.358327   1.000000
    7       10.620266  -0.034988
    8       12.638155  -0.000000
    9       13.820368   0.000000
   10       17.791442   0.000000

  0.2000000E+00  0.2000000E+00  0.3742002E-15  0.1777778E-02
    1       -3.055170   1.000000
    2        1.590441   1.000000
    3        3.546829   1.000000
    4        4.318766   1.000000
    5        7.442100   1.000000
    6        7.639566   1.000000
    7        9.465311   1.000000
    8       12.293253  -0.000000
    9       14.500630   0.000000
   10       15.865334   0.000000

  0.2666667E+00  0.2000000E+00  0.3742002E-15  0.3555556E-02
    1       -2.309252   1.000000
    2        0.993608   1.000000
    3        2.894834   1.000000
    4        4.217693   1.000000
    5        7.057951   1.000000
    6        7.848780   1.000000
    7        9.402003   1.000000
    8       12.539838  -0.000000
    9       15.093606   0.000000
   10       16.327299   0.000000

  0.3333333E+00  0.2000000E+00  0.3742002E-15  0.3555556E-02
    1       -1.484050   1.000000
    2        0.263565   1.000000
    3        2.474418   1.000000
    4        4.196191   1.000000
    5        6.638376   1.000000
    6        7.909432   1.000000
    7        9.851977   1.000000
    8       12.368432  -0.000000
    9       15.091396   0.000000
   10       17.247367   0.000000

  0.4000000E+00  0.2000000E+00  0.3742002E-15  0.1777778E-02
    1       -0.756576   1.000000
    2       -0.437765   1.000000
    3        2.336396   1.000000
    4        4.199964   1.000000
    5        6.482668   1.000000
    6        7.884764   1.000000
    7       10.190031   1.000044
    8       12.145434  -0.000000
    9       15.063919   0.000000
   10       17.667651   0.000000

  0.2666667E+00  0.2666667E+00  0.3742002E-15  0.1777778E-02
    1       -1.525029   1.000000
    2        0.641296   1.000000
    3        2.012263   1.000000
    4        4.356347   1.000000
    5        6.319735   1.000000
    6        8.670521   1.000000
    7        9.118710   1.000000
    8       12.279218  -0.000000
    9       16.202059   0.000000
   10       16.386767   0.000000

  0.3333333E+00  0.2666667E+00  0.3742002E-15  0.3555556E-02
    1       -0.682681   1.000000
    2        0.105251   1.000000
    3        1.473205   1.000000
    4        4.556999   1.000000
    5        5.802348   1.000000
    6        8.786978   1.000000
    7        9.596995   1.000000
    8       11.721434  -0.000000
    9       16.212261   0.000000
   10       17.191204   0.000000

  0.3333333E+00  0.3333333E+00  0.3742002E-15  0.5925926E-03
    1       -0.023752   1.000000
    2       -0.023749   1.000000
    3        0.822330   1.000000
    4        5.097394   1.000000
    5        5.097397   1.000000
    6        9.388116   1.000000
    7        9.388116   1.000000
    8       11.281530  -0.000000
    9       16.927274   0.000000
   10       16.927275   0.000000

  0.3742002E-15  0.3742002E-15  0.6666667E-01  0.5925926E-03
    1       -5.247589   1.000000
    2        4.652944   1.000000
    3        4.652946   1.000000
    4        5.618090   1.000000
    5        7.454152   1.000000
    6        9.080304   1.000000
    7        9.080305   1.000000
    8       12.950408  -0.000000
    9       12.950410  -0.000000
   10       14.851359   0.000000

  0.6666667E-01  0.3766815E-15  0.6666667E-01  0.3555556E-02
    1       -5.156916   1.000000
    2        4.434313   1.000000
    3        4.690958   1.000000
    4        5.581720   1.000000
    5        7.109869   1.000000
    6        9.035656   1.000000
    7        9.582935   1.000000
    8       12.465690  -0.000000
    9       12.559597  -0.000000
   10       15.108423   0.000000

  0.1333333E+00  0.3754153E-15  0.6666667E-01  0.3555556E-02
    1       -4.889568   1.000000
    2        3.850945   1.000000
    3        4.787680   1.000000
    4        5.384399   1.000000
    5        6.691669   1.000000
    6        8.929443   1.000000
    7       10.426802   0.980010
    8       11.794650  -0.000000
    9       11.979926  -0.000000
   10       15.719156   0.000000

  0.2000000E+00  0.3870416E-15  0.6666667E-01  0.3555556E-02
    1       -4.458913   1.000000
    2        3.052479   1.000000
    3        4.897700   1.000000
    4        4.983397   1.000000
    5        6.459963   1.000000
    6        8.828366   1.000000
    7       10.738051  -0.002210
    8       11.535371  -0.000000
    9       11.911518  -0.000000
   10       15.958524   0.000000

  0.2666667E+00  0.4120044E-15  0.6666667E-01  0.3555556E-02
    1       -3.885465   1.000000
    2        2.161165   1.000000
    3        4.545837   1.000000
    4        4.970304   1.000000
    5        6.179075   1.000000
    6        8.789178   1.000000
    7       10.839379  -0.000011
    8       11.269582  -0.000000
    9       12.426946  -0.000000
   10       16.059747   0.000000

  0.3333333E+00  0.4025434E-15  0.6666667E-01  0.3555556E-02
    1       -3.195024   1.000000
    2        1.241978   1.000000
    3        4.185077   1.000000
    4        4.984940   1.000000
    5        5.785439   1.000000
    6        8.809395   1.000000
    7       11.180346  -0.000000
    8       11.306718  -0.000000
    9       12.583601  -0.000000
   10       16.574046   0.000000

  0.4000000E+00  0.3732510E-15  0.6666667E-01  0.3555556E-02
    1       -2.418933   1.000000
    2        0.325655   1.000000
    3        3.938986   1.000000
    4        4.962548   1.000000
    5        5.414643   1.000000
    6        8.842924   1.000000
    7       11.221365  -0.000000
    8       11.799914  -0.000000
    9       12.757743  -0.000000
   10       16.858232   0.000000

  0.4666667E+00  0.3915456E-15  0.6666667E-01  0.3555556E-02
    1       -1.621893   1.000000
    2       -0.536595   1.000000
    3        3.816416   1.000000
    4        4.939463   1.000000
    5        5.196850   1.000000
    6        8.860580   1.000000
    7       11.289576  -0.000000
    8       11.881902  -0.000000
    9       13.283607   0.000000
   10       16.542935   0.000000

  0.6666667E-01  0.6666667E-01  0.6666667E-01  0.3555556E-02
    1       -4.977862   1.000000
    2        4.052796   1.000000
    3        4.727071   1.000000
    4        5.466580   1.000000
    5        6.800479   1.000000
    6        8.913712   1.000000
    7       10.262318   1.001729
    8       11.917700  -0.000000
    9       12.127586  -0.000000
   10       15.759737   0.000000

  0.1333333E+00  0.6666667E-01  0.6666667E-01  0.7111111E-02
    1       -4.628540   1.000000
    2        3.401459   1.000000
    3        4.700062   1.000000
    4        5.209034   1.000000
    5        6.628078   1.000000
    6        8.703744   1.000000
    7       10.933063  -0.000000
    8       11.406466  -0.000000
    9       11.908774  -0.000000
   10       16.158172   0.000000

  0.2000000E+00  0.6666667E-01  0.6666667E-01  0.7111111E-02
    1       -4.125534   1.000000
    2        2.593340   1.000000
    3        4.499813   1.000000
    4        4.971534   1.000000
    5        6.528065   1.000000
    6        8.536043   1.000000
    7       10.764066  -0.000700
    8       11.397649  -0.000000
    9       12.422119  -0.000000
   10       16.024059   0.000000

  0.2666667E+00  0.6666667E-01  0.6666667E-01  0.7111111E-02
    1       -3.491509   1.000000
    2        1.715715   1.000000
    3        4.217028   1.000000
    4        4.754337   1.000000
    5        6.330527   1.000000
    6        8.499175   1.000000
    7       10.692065  -0.011237
    8       11.578547  -0.000000
    9       12.856189  -0.000000
   10       16.208049   0.000000

  0.3333333E+00  0.6666667E-01  0.6666667E-01  0.7111111E-02
    1       -2.753970   1.000000
    2        0.814362   1.000000
    3        3.997315   1.000000
    4        4.500692   1.000000
    5        6.077981   1.000000
    6        8.534338   1.000000
    7       10.825682  -0.000025
    8       11.966081  -0.000000
    9       12.957636  -0.000000
   10       16.772626   0.000000

  0.4000000E+00  0.6666667E-01  0.6666667E-01  0.7111111E-02
    1       -1.949921   1.000000
    2       -0.080644   1.000000
    3        3.881897   1.000000
    4        4.275195   1.000000
    5        5.887824   1.000000
    6        8.554026   1.000000
    7       11.035937  -0.000000
    8       12.223978  -0.000000
    9       13.173152  -0.000000
   10       16.828576   0.000000

  0.4666667E+00  0.6666667E-01  0.6666667E-01  0.3555556E-02
    1       -1.307479   1.000000
    2       -0.751896   1.000000
    3        3.853517   1.000000
    4        4.179670   1.000000
    5        5.819832   1.000000
    6        8.556013   1.000000
    7       11.137213  -0.000000
    8       12.256081  -0.000000
    9       13.388567   0.000000
   10       16.678921   0.000000

  0.1333333E+00  0.1333333E+00  0.6666667E-01  0.3555556E-02
    1       -4.206124   1.000000
    2        2.810837   1.000000
    3        4.321717   1.000000
    4        5.036039   1.000000
    5        6.776761   1.000000
    6        8.274888   1.000000
    7       10.783586  -0.000267
    8       11.447910  -0.000000
    9       12.482941  -0.000000
   10       16.105209   0.000000

  0.2000000E+00  0.1333333E+00  0.6666667E-01  0.7111111E-02
    1       -3.640165   1.000000
    2        2.107253   1.000000
    3        3.916467   1.000000
    4        4.760471   1.000000
    5        6.946685   1.000000
    6        7.933919   1.000000
    7       10.371994   1.034436
    8       11.804794  -0.000000
    9       13.310299   0.000000
   10       15.878911   0.000000

  0.2666667E+00  0.1333333E+00  0.6666667E-01  0.7111111E-02
    1       -2.954007   1.000000
    2        1.317024   1.000000
    3        3.599148   1.000000
    4        4.437001   1.000000
    5        6.785465   1.000000
    6        7.979759   1.000000
    7       10.214243   1.000172
    8       12.213093  -0.000000
    9       13.756302   0.000000
   10       16.208922   0.000000

  0.3333333E+00  0.1333333E+00  0.6666667E-01  0.7111111E-02
    1       -2.176419   1.000000
    2        0.470331   1.000000
    3        3.385378   1.000000
    4        4.171022   1.000000
    5        6.493055   1.000000
    6        8.116693   1.000000
    7       10.389469   1.034108
    8       12.489944  -0.000000
    9       13.839476   0.000000
   10       16.826015   0.000000

  0.4000000E+00  0.1333333E+00  0.6666667E-01  0.7111111E-02
    1       -1.355826   1.000000
    2       -0.384800   1.000000
    3        3.276284   1.000000
    4        4.027611   1.000000
    5        6.314099   1.000000
    6        8.152475   1.000000
    7       10.687783  -0.012703
    8       12.536081  -0.000000
    9       13.857723   0.000000
   10       17.095962   0.000000

  0.2000000E+00  0.2000000E+00  0.6666667E-01  0.3555556E-02
    1       -3.020430   1.000000
    2        1.584920   1.000000
    3        3.297624   1.000000
    4        4.506778   1.000000
    5        7.242307   1.000000
    6        7.573600   1.000000
    7        9.938400   1.000000
    8       12.297843  -0.000000
    9       14.347603   0.000000
   10       15.733518   0.000000

  0.2666667E+00  0.2000000E+00  0.6666667E-01  0.7111111E-02
    1       -2.289908   1.000000
    2        0.968330   1.000000
    3        2.765766   1.000000
    4        4.341430   1.000000
    5        6.672345   1.000000
    6        8.116655   1.000000
    7        9.752099   1.000000
    8       12.536215  -0.000000
    9       14.932286   0.000000
   10       16.142314   0.000000

  0.3333333E+00  0.2000000E+00  0.6666667E-01  0.7111111E-02
    1       -1.479789   1.000000
    2        0.220779   1.000000
    3        2.432110   1.000000
    4        4.276341   1.000000
    5        6.261921   1.000000
    6        8.361606   1.000000
    7       10.010654   1.000000
    8       12.376308  -0.000000
    9       14.984323   0.000000
   10       16.943122   0.000000

  0.4000000E+00  0.2000000E+00  0.6666667E-01  0.3555556E-02
    1       -0.709856   1.000000
    2       -0.533782   1.000000
    3        2.322933   1.000000
    4        4.265443   1.000000
    5        6.110685   1.000000
    6        8.388617   1.000000
    7       10.283371   1.004014
    8       12.170098  -0.000000
    9       14.974339   0.000000
   10       17.303048   0.000000

  0.2666667E+00  0.2666667E+00  0.6666667E-01  0.3555556E-02
    1       -1.525663   1.000000
    2        0.608865   1.000000
    3        1.966841   1.000000
    4        4.418425   1.000000
    5        6.097767   1.000000
    6        8.810442   1.000000
    7        9.462864   1.000000
    8       12.301295  -0.000000
    9       16.087554   0.000000
   10       16.155892   0.000000

  0.3333333E+00  0.2666667E+00  0.6666667E-01  0.7111111E-02
    1       -0.708346   1.000000
    2        0.064372   1.000000
    3        1.486549   1.000000
    4        4.578897   1.000000
    5        5.645728   1.000000
    6        9.062457   1.000000
    7        9.755588   1.000000
    8       11.771241  -0.000000
    9       16.091770   0.000000
   10       16.995384   0.000000

  0.3333333E+00  0.3333333E+00  0.6666667E-01  0.1185185E-02
    1       -0.088220   1.000000
    2       -0.088218   1.000000
    3        0.906066   1.000000
    4        5.048138   1.000000
    5        5.048140   1.000000
    6        9.585874   1.000000
    7        9.585875   1.000000
    8       11.342093  -0.000000
    9       16.792846   0.000000
   10       16.792846   0.000000

  0.3742002E-15  0.3742002E-15  0.1333333E+00  0.5925926E-03
    1       -5.032380   1.000000
    2        4.721967   1.000000
    3        4.830228   1.000000
    4        4.830231   1.000000
    5        8.243522   1.000000
    6        8.506611   1.000000
    7        8.506613   1.000000
    8       12.454274  -0.000000
    9       12.454276  -0.000000
   10       14.799582   0.000000

  0.6666667E-01  0.3766815E-15  0.1333333E+00  0.3555556E-02
    1       -4.945650   1.000000
    2        4.565852   1.000000
    3        4.726896   1.000000
    4        4.844216   1.000000
    5        7.567151   1.000000
    6        8.465217   1.000000
    7        9.313679   1.000000
    8       12.247361  -0.000000
    9       12.372336  -0.000000
   10       15.123697   0.000000

  0.1333333E+00  0.3754153E-15  0.1333333E+00  0.3555556E-02
    1       -4.690379   1.000000
    2        3.901910   1.000000
    3        4.689123   1.000000
    4        4.862557   1.000000
    5        6.981022   1.000000
    6        8.405726   1.000000
    7       10.121199   1.000000
    8       12.007929  -0.000000
    9       12.181969  -0.000000
   10       15.744551   0.000000

  0.2000000E+00  0.3870416E-15  0.1333333E+00  0.3555556E-02
    1       -4.280711   1.000000
    2        3.019995   1.000000
    3        4.590300   1.000000
    4        4.834009   1.000000
    5        6.537276   1.000000
    6        8.455473   1.000000
    7       10.480078   0.689354
    8       11.958106  -0.000000
    9       12.292164  -0.000000
   10       15.578922   0.000000

  0.2666667E+00  0.4120044E-15  0.1333333E+00  0.3555556E-02
    1       -3.737536   1.000000
    2        2.069208   1.000000
    3        4.439597   1.000000
    4        4.732949   1.000000
    5        6.129594   1.000000
    6        8.682055   1.000000
    7       10.692697  -0.011030
    8       11.741320  -0.000000
    9       12.721893  -0.000000
   10       15.575258   0.000000

  0.3333333E+00  0.4025434E-15  0.1333333E+00  0.3555556E-02
    1       -3.085243   1.000000
    2        1.119020   1.000000
    3        4.290158   1.000000
    4        4.589670   1.000000
    5        5.722939   1.000000
    6        9.038008   1.000000
    7       11.051949  -0.000000
    8       11.557410  -0.000000
    9       12.865711  -0.000000
   10       16.045078   0.000000

  0.4000000E+00  0.3732510E-15  0.1333333E+00  0.3555556E-02
    1       -2.348125   1.000000
    2        0.195121   1.000000
    3        4.186372   1.000000
    4        4.458787   1.000000
    5        5.376550   1.000000
    6        9.398464   1.000000
    7       11.321234  -0.000000
    8       11.425874  -0.000000
    9       13.161081  -0.000000
   10       16.346855   0.000000

  0.4666667E+00  0.3915456E-15  0.1333333E+00  0.3555556E-02
    1       -1.548016   1.000000
    2       -0.693374   1.000000
    3        4.139729   1.000000
    4        4.382915   1.000000
    5        5.173897   1.000000
    6        9.624695   1.000000
    7       11.358485  -0.000000
    8       11.361244  -0.000000
    9       13.721479   0.000000
   10       16.031900   0.000000

  0.6666667E-01  0.6666667E-01  0.1333333E+00  0.3555556E-02
    1       -4.774611   1.000000
    2        4.175959   1.000000
    3        4.543213   1.000000
    4        4.943875   1.000000
    5        7.183008   1.000000
    6        8.311815   1.000000
    7       10.014504   1.000000
    8       11.953250  -0.000000
    9       12.291592  -0.000000
   10       15.684063   0.000000

  0.1333333E+00  0.6666667E-01  0.1333333E+00  0.7111111E-02
    1       -4.441930   1.000000
    2        3.449513   1.000000
    3        4.322435   1.000000
    4        5.011068   1.000000
    5        6.887214   1.000000
    6        8.121477   1.000000
    7       10.669915  -0.019963
    8       11.730842  -0.000000
    9       12.308928  -0.000000
   10       15.917418   0.000000

  0.2000000E+00  0.6666667E-01  0.1333333E+00  0.7111111E-02
    1       -3.964862   1.000000
    2        2.556178   1.000000
    3        4.121714   1.000000
    4        4.955095   1.000000
    5        6.557146   1.000000
    6        8.186296   1.000000
    7       10.884486  -0.000000
    8       11.699226  -0.000000
    9       12.678968  -0.000000
   10       15.618190   0.000000

  0.2666667E+00  0.6666667E-01  0.1333333E+00  0.7111111E-02
    1       -3.366000   1.000000
    2        1.621041   1.000000
    3        3.965485   1.000000
    4        4.774048   1.000000
    5        6.147091   1.000000
    6        8.525932   1.000000
    7       11.059403  -0.000000
    8       11.647112  -0.000000
    9       13.005341  -0.000000
   10       15.760335   0.000000

  0.3333333E+00  0.6666667E-01  0.1333333E+00  0.7111111E-02
    1       -2.669856   1.000000
    2        0.694460   1.000000
    3        3.883440   1.000000
    4        4.527044   1.000000
    5        5.764383   1.000000
    6        8.962246   1.000000
    7       11.194412  -0.000000
    8       11.696077  -0.000000
    9       13.167653  -0.000000
   10       16.230497   0.000000

  0.4000000E+00  0.6666667E-01  0.1333333E+00  0.7111111E-02
    1       -1.899624   1.000000
    2       -0.206098   1.000000
    3        3.886406   1.000000
    4        4.290241   1.000000
    5        5.502138   1.000000
    6        9.307011   1.000000
    7       11.214721  -0.000000
    8       11.749370  -0.000000
    9       13.540361   0.000000
   10       16.279143   0.000000

  0.4666667E+00  0.6666667E-01  0.1333333E+00  0.3555556E-02
    1       -1.097165   1.000000
    2       -1.050291   1.000000
    3        3.924329   1.000000
    4        4.168270   1.000000
    5        5.409997   1.000000
    6        9.433659   1.000000
    7       11.217776  -0.000000
    8       11.747804  -0.000000
    9       13.824377   0.000000
   10       16.093612   0.000000

  0.1333333E+00  0.1333333E+00  0.1333333E+00  0.3555556E-02
    1       -4.041340   1.000000
    2        2.858612   1.000000
    3        3.818043   1.000000
    4        5.046620   1.000000
    5        7.104109   1.000000
    6        7.570314   1.000000
    7       11.337940  -0.000000
    8       11.370833  -0.000000
    9       12.695539  -0.000000
   10       15.823483   0.000000

  0.2000000E+00  0.1333333E+00  0.1333333E+00  0.7111111E-02
    1       -3.507224   1.000000
    2        2.093640   1.000000
    3        3.461448   1.000000
    4        4.909843   1.000000
    5        6.817986   1.000000
    6        7.722061   1.000000
    7       11.101425  -0.000000
    8       11.803510  -0.000000
    9       13.280103   0.000000
   10       15.571090   0.000000

  0.2666667E+00  0.1333333E+00  0.1333333E+00  0.7111111E-02
    1       -2.862381   1.000000
    2        1.239795   1.000000
    3        3.260332   1.000000
    4        4.673912   1.000000
    5        6.276914   1.000000
    6        8.310814   1.000000
    7       10.920837  -0.000000
    8       12.137914  -0.000000
    9       13.644648   0.000000
   10       15.812452   0.000000

  0.3333333E+00  0.1333333E+00  0.1333333E+00  0.7111111E-02
    1       -2.131174   1.000000
    2        0.366302   1.000000
    3        3.167604   1.000000
    4        4.437011   1.000000
    5        5.870720   1.000000
    6        8.857812   1.000000
    7       10.847888  -0.000006
    8       12.303108  -0.000000
    9       13.820150   0.000000
   10       16.268170   0.000000

  0.4000000E+00  0.1333333E+00  0.1333333E+00  0.7111111E-02
    1       -1.337190   1.000000
    2       -0.497158   1.000000
    3        3.139697   1.000000
    4        4.288951   1.000000
    5        5.655011   1.000000
    6        9.169829   1.000000
    7       10.888382  -0.000000
    8       12.299596  -0.000000
    9       13.967585   0.000000
   10       16.428913   0.000000

  0.2000000E+00  0.2000000E+00  0.1333333E+00  0.3555556E-02
    1       -2.926354   1.000000
    2        1.565107   1.000000
    3        2.891561   1.000000
    4        4.739593   1.000000
    5        6.567943   1.000000
    6        7.948475   1.000000
    7       10.804787  -0.000085
    8       12.294373  -0.000000
    9       14.076371   0.000000
   10       15.449572   0.000000

  0.2666667E+00  0.2000000E+00  0.1333333E+00  0.7111111E-02
    1       -2.245630   1.000000
    2        0.900025   1.000000
    3        2.525617   1.000000
    4        4.567768   1.000000
    5        6.066011   1.000000
    6        8.588015   1.000000
    7       10.546469   0.168566
    8       12.521689  -0.000000
    9       14.614873   0.000000
   10       15.763927   0.000000
