   71   71   85    1
  0.2199523E+02  0.1053953E-08  0.6141200E-09  0.2412750E-08  0.5000000E-15
   1.0000000000000000E-004
  CAR 
 Name                                    
    266     23    176

  0.3742002E-15  0.3742002E-15  0.1262379E-14  0.2222222E-01
    1      -13.946376   1.000000
    2      -12.891443   1.000000
    3      -12.666380   1.000000
    4      -12.506609   1.000000
    5      -11.940536   1.000000
    6      -11.716894   1.000000
    7      -11.664222   1.000000
    8      -11.400579   1.000000
    9      -11.370694   1.000000
   10      -11.261306   1.000000
   11      -11.141492   1.000000
   12      -10.987949   1.000000
   13      -10.745278   1.000000
   14      -10.406009   1.000000
   15      -10.242662   1.000000
   16      -10.225068   1.000000
   17      -10.102701   1.000000
   18      -10.062982   1.000000
   19       -9.799408   1.000000
   20       -9.788132   1.000000
   21       -9.523716   1.000000
   22       -9.514326   1.000000
   23       -9.391179   1.000000
   24       -9.271846   1.000000
   25       -8.975253   1.000000
   26       -8.869506   1.000000
   27       -8.569389   1.000000
   28       -8.307309   1.000000
   29       -8.294705   1.000000
   30       -8.200713   1.000000
   31       -8.034090   1.000000
   32       -7.980885   1.000000
   33       -7.659844   1.000000
   34       -7.451294   1.000000
   35       -7.340141   1.000000
   36       -7.189080   1.000000
   37       -7.077037   1.000000
   38       -6.881532   1.000000
   39       -6.868016   1.000000
   40       -6.792968   1.000000
   41       -6.726087   1.000000
   42       -6.591874   1.000000
   43       -6.529784   1.000000
   44       -6.357042   1.000000
   45       -6.299159   1.000000
   46       -6.213345   1.000000
   47       -6.184412   1.000000
   48       -6.113011   1.000000
   49       -6.048395   1.000000
   50       -5.950308   1.000000
   51       -5.828861   1.000000
   52       -5.742406   1.000000
   53       -5.621579   1.000000
   54       -5.607908   1.000000
   55       -5.577371   1.000000
   56       -5.417087   1.000000
   57       -5.358170   1.000000
   58       -5.281698   1.000000
   59       -5.209341   1.000000
   60       -5.163137   1.000000
   61       -5.161496   1.000000
   62       -5.045922   1.000000
   63       -4.853189   1.000000
   64       -4.777277   1.000000
   65       -4.753554   1.000000
   66       -4.667690   1.000000
   67       -4.639186   1.000000
   68       -4.526466   1.000000
   69       -4.498808   1.000000
   70       -4.431369   1.000000
   71       -4.349213   1.000000
   72       -4.286713   1.000000
   73       -4.210196   1.000000
   74       -4.172567   1.000000
   75       -4.085656   1.000000
   76       -4.049185   1.000000
   77       -4.031835   1.000000
   78       -3.964253   1.000000
   79       -3.887012   1.000000
   80       -3.844994   1.000000
   81       -3.730932   1.000000
   82       -3.712416   1.000000
   83       -3.667072   1.000000
   84       -3.614546   1.000000
   85       -3.560459   1.000000
   86       -3.441209   1.000000
   87       -3.429528   1.000000
   88       -3.388237   1.000000
   89       -3.240690   1.000000
   90       -3.206677   1.000000
   91       -3.128611   1.000000
   92       -3.096696   1.000000
   93       -2.990074   1.000000
   94       -2.920354   1.000000
   95       -2.858768   1.000000
   96       -2.722283   1.000000
   97       -2.629825   1.000000
   98       -2.621763   1.000000
   99       -2.534344   1.000000
  100       -2.525329   1.000000
  101       -2.426175   1.000000
  102       -2.380295   1.000000
  103       -2.373110   1.000000
  104       -2.357664   1.000000
  105       -2.280724   1.000000
  106       -2.237575   1.000000
  107       -2.211299   1.000000
  108       -2.188262   1.000000
  109       -2.131411   1.000000
  110       -1.980257   1.000000
  111       -1.947545   1.000000
  112       -1.837840   1.000000
  113       -1.805068   1.000000
  114       -1.648682   1.000000
  115       -1.608739   1.000000
  116       -1.586895   1.000000
  117       -1.516879   1.000000
  118       -1.287357   1.000000
  119       -1.249235   1.000000
  120       -1.194609   1.000000
  121       -1.087937   1.000000
  122       -1.007756   1.000000
  123       -0.845696   1.000000
  124       -0.719420   1.000001
  125       -0.607489   1.000023
  126       -0.532739   1.000195
  127       -0.508666   1.000363
  128       -0.384978   1.005212
  129       -0.227411   1.033769
  130       -0.211032   1.035312
  131       -0.114970   0.983616
  132       -0.035026   0.794736
  133       -0.016934   0.731184
  134        0.043351   0.486690
  135        0.117650   0.197954
  136        0.189542   0.024878
  137        0.198270   0.012470
  138        0.304554  -0.034192
  139        0.320365  -0.031743
  140        0.468397  -0.004939
  141        0.545899  -0.001019
  142        0.576197  -0.000499
  143        0.655920  -0.000060
  144        0.670223  -0.000039
  145        0.800866  -0.000001
  146        0.867337  -0.000000
  147        0.893646  -0.000000
  148        0.948125  -0.000000
  149        0.975649  -0.000000
  150        1.040878  -0.000000
  151        1.082461  -0.000000
  152        1.121790  -0.000000
  153        1.166888  -0.000000
  154        1.177415  -0.000000
  155        1.199943  -0.000000
  156        1.216175  -0.000000
  157        1.312779  -0.000000
  158        1.331794  -0.000000
  159        1.362585  -0.000000
  160        1.411744  -0.000000
  161        1.435164  -0.000000
  162        1.443412  -0.000000
  163        1.458350  -0.000000
  164        1.479672  -0.000000
  165        1.520226  -0.000000
  166        1.586041  -0.000000
  167        1.624024  -0.000000
  168        1.670351  -0.000000
  169        1.702484  -0.000000
  170        1.760099  -0.000000
  171        1.837242  -0.000000
  172        1.897663  -0.000000
  173        1.920890  -0.000000
  174        1.937714  -0.000000
  175        2.013574  -0.000000
  176        2.136713  -0.000000

  0.2000000E+00  0.3742002E-15  0.1262379E-14  0.4444444E-01
    1      -13.919877   1.000000
    2      -13.017315   1.000000
    3      -12.763263   1.000000
    4      -12.205797   1.000000
    5      -12.007589   1.000000
    6      -11.939237   1.000000
    7      -11.424875   1.000000
    8      -11.390032   1.000000
    9      -11.259520   1.000000
   10      -11.202826   1.000000
   11      -11.113840   1.000000
   12      -10.987429   1.000000
   13      -10.723324   1.000000
   14      -10.550306   1.000000
   15      -10.452659   1.000000
   16      -10.236500   1.000000
   17      -10.229199   1.000000
   18      -10.088462   1.000000
   19       -9.797502   1.000000
   20       -9.778584   1.000000
   21       -9.555602   1.000000
   22       -9.538022   1.000000
   23       -9.360757   1.000000
   24       -9.230011   1.000000
   25       -8.957619   1.000000
   26       -8.749732   1.000000
   27       -8.428741   1.000000
   28       -8.264151   1.000000
   29       -8.212775   1.000000
   30       -8.129674   1.000000
   31       -8.049182   1.000000
   32       -7.980513   1.000000
   33       -7.584912   1.000000
   34       -7.476415   1.000000
   35       -7.433547   1.000000
   36       -7.249624   1.000000
   37       -7.108744   1.000000
   38       -6.944306   1.000000
   39       -6.889138   1.000000
   40       -6.858614   1.000000
   41       -6.774484   1.000000
   42       -6.691442   1.000000
   43       -6.549058   1.000000
   44       -6.478445   1.000000
   45       -6.352623   1.000000
   46       -6.274345   1.000000
   47       -6.071410   1.000000
   48       -6.007978   1.000000
   49       -5.955046   1.000000
   50       -5.942455   1.000000
   51       -5.854965   1.000000
   52       -5.811628   1.000000
   53       -5.609688   1.000000
   54       -5.541078   1.000000
   55       -5.481597   1.000000
   56       -5.471267   1.000000
   57       -5.355951   1.000000
   58       -5.221681   1.000000
   59       -5.208648   1.000000
   60       -5.108232   1.000000
   61       -5.034755   1.000000
   62       -5.022208   1.000000
   63       -4.990677   1.000000
   64       -4.765695   1.000000
   65       -4.699482   1.000000
   66       -4.693537   1.000000
   67       -4.592396   1.000000
   68       -4.505753   1.000000
   69       -4.479511   1.000000
   70       -4.426887   1.000000
   71       -4.322891   1.000000
   72       -4.238978   1.000000
   73       -4.203961   1.000000
   74       -4.194352   1.000000
   75       -4.089781   1.000000
   76       -4.059550   1.000000
   77       -4.049957   1.000000
   78       -3.983919   1.000000
   79       -3.902750   1.000000
   80       -3.894247   1.000000
   81       -3.815412   1.000000
   82       -3.767196   1.000000
   83       -3.687257   1.000000
   84       -3.588055   1.000000
   85       -3.540160   1.000000
   86       -3.529161   1.000000
   87       -3.389033   1.000000
   88       -3.371534   1.000000
   89       -3.272167   1.000000
   90       -3.197459   1.000000
   91       -3.166019   1.000000
   92       -3.058177   1.000000
   93       -2.970425   1.000000
   94       -2.914600   1.000000
   95       -2.862277   1.000000
   96       -2.747344   1.000000
   97       -2.707503   1.000000
   98       -2.644754   1.000000
   99       -2.588395   1.000000
  100       -2.495195   1.000000
  101       -2.492304   1.000000
  102       -2.418035   1.000000
  103       -2.381325   1.000000
  104       -2.317559   1.000000
  105       -2.256733   1.000000
  106       -2.186609   1.000000
  107       -2.145341   1.000000
  108       -2.138106   1.000000
  109       -2.034448   1.000000
  110       -1.942741   1.000000
  111       -1.898374   1.000000
  112       -1.774266   1.000000
  113       -1.773263   1.000000
  114       -1.633807   1.000000
  115       -1.596957   1.000000
  116       -1.562881   1.000000
  117       -1.471808   1.000000
  118       -1.288137   1.000000
  119       -1.252893   1.000000
  120       -1.194283   1.000000
  121       -1.165051   1.000000
  122       -1.014301   1.000000
  123       -0.927111   1.000000
  124       -0.742949   1.000000
  125       -0.681050   1.000002
  126       -0.597705   1.000031
  127       -0.558175   1.000098
  128       -0.491322   1.000556
  129       -0.304667   1.017499
  130       -0.246367   1.030511
  131       -0.137533   1.009389
  132       -0.097455   0.955723
  133        0.033874   0.526775
  134        0.052808   0.446790
  135        0.062100   0.407968
  136        0.156991   0.087328
  137        0.252848  -0.030505
  138        0.345535  -0.026449
  139        0.384862  -0.017544
  140        0.475895  -0.004308
  141        0.554055  -0.000845
  142        0.558568  -0.000761
  143        0.646153  -0.000079
  144        0.720383  -0.000008
  145        0.843092  -0.000000
  146        0.853798  -0.000000
  147        0.900627  -0.000000
  148        0.969636  -0.000000
  149        0.973261  -0.000000
  150        1.060106  -0.000000
  151        1.113261  -0.000000
  152        1.133192  -0.000000
  153        1.170133  -0.000000
  154        1.247553  -0.000000
  155        1.265339  -0.000000
  156        1.304882  -0.000000
  157        1.322675  -0.000000
  158        1.350399  -0.000000
  159        1.376564  -0.000000
  160        1.411328  -0.000000
  161        1.465849  -0.000000
  162        1.474651  -0.000000
  163        1.496590  -0.000000
  164        1.534381  -0.000000
  165        1.542171  -0.000000
  166        1.603693  -0.000000
  167        1.628514  -0.000000
  168        1.655310  -0.000000
  169        1.690135  -0.000000
  170        1.755785  -0.000000
  171        1.829735  -0.000000
  172        1.899896  -0.000000
  173        1.908857  -0.000000
  174        1.936881  -0.000000
  175        1.988305  -0.000000
  176        2.088150  -0.000000

  0.4000000E+00  0.3742002E-15  0.1262379E-14  0.4444444E-01
    1      -13.866971   1.000000
    2      -13.213694   1.000000
    3      -12.680707   1.000000
    4      -12.350355   1.000000
    5      -11.937090   1.000000
    6      -11.635890   1.000000
    7      -11.463902   1.000000
    8      -11.392504   1.000000
    9      -11.149442   1.000000
   10      -11.137125   1.000000
   11      -10.985235   1.000000
   12      -10.980690   1.000000
   13      -10.754908   1.000000
   14      -10.674333   1.000000
   15      -10.539583   1.000000
   16      -10.510246   1.000000
   17      -10.219275   1.000000
   18      -10.141678   1.000000
   19      -10.130047   1.000000
   20       -9.808173   1.000000
   21       -9.554662   1.000000
   22       -9.408459   1.000000
   23       -9.263441   1.000000
   24       -9.191509   1.000000
   25       -8.932073   1.000000
   26       -8.729194   1.000000
   27       -8.269165   1.000000
   28       -8.129759   1.000000
   29       -8.056686   1.000000
   30       -8.007230   1.000000
   31       -7.919816   1.000000
   32       -7.719695   1.000000
   33       -7.636349   1.000000
   34       -7.596564   1.000000
   35       -7.468725   1.000000
   36       -7.444681   1.000000
   37       -7.299130   1.000000
   38       -7.173853   1.000000
   39       -7.114798   1.000000
   40       -6.893901   1.000000
   41       -6.819474   1.000000
   42       -6.745884   1.000000
   43       -6.577217   1.000000
   44       -6.355150   1.000000
   45       -6.316656   1.000000
   46       -6.274558   1.000000
   47       -6.075271   1.000000
   48       -6.066015   1.000000
   49       -5.951988   1.000000
   50       -5.930777   1.000000
   51       -5.768058   1.000000
   52       -5.724479   1.000000
   53       -5.628379   1.000000
   54       -5.558584   1.000000
   55       -5.520441   1.000000
   56       -5.457408   1.000000
   57       -5.373299   1.000000
   58       -5.280625   1.000000
   59       -5.140299   1.000000
   60       -5.014558   1.000000
   61       -4.974629   1.000000
   62       -4.894820   1.000000
   63       -4.848914   1.000000
   64       -4.748499   1.000000
   65       -4.745095   1.000000
   66       -4.596601   1.000000
   67       -4.562694   1.000000
   68       -4.493929   1.000000
   69       -4.439743   1.000000
   70       -4.397660   1.000000
   71       -4.352800   1.000000
   72       -4.238051   1.000000
   73       -4.208585   1.000000
   74       -4.167279   1.000000
   75       -4.147115   1.000000
   76       -4.116808   1.000000
   77       -4.043642   1.000000
   78       -3.989516   1.000000
   79       -3.957565   1.000000
   80       -3.947374   1.000000
   81       -3.857668   1.000000
   82       -3.841848   1.000000
   83       -3.682204   1.000000
   84       -3.657591   1.000000
   85       -3.557779   1.000000
   86       -3.513497   1.000000
   87       -3.372429   1.000000
   88       -3.355950   1.000000
   89       -3.329235   1.000000
   90       -3.166824   1.000000
   91       -3.140793   1.000000
   92       -3.098156   1.000000
   93       -3.083793   1.000000
   94       -2.953454   1.000000
   95       -2.844964   1.000000
   96       -2.830580   1.000000
   97       -2.782460   1.000000
   98       -2.644423   1.000000
   99       -2.606267   1.000000
  100       -2.541514   1.000000
  101       -2.515928   1.000000
  102       -2.383638   1.000000
  103       -2.303780   1.000000
  104       -2.268254   1.000000
  105       -2.212551   1.000000
  106       -2.154246   1.000000
  107       -2.115999   1.000000
  108       -2.018363   1.000000
  109       -1.926898   1.000000
  110       -1.918768   1.000000
  111       -1.739577   1.000000
  112       -1.732067   1.000000
  113       -1.691204   1.000000
  114       -1.597796   1.000000
  115       -1.547812   1.000000
  116       -1.501917   1.000000
  117       -1.418763   1.000000
  118       -1.317379   1.000000
  119       -1.285348   1.000000
  120       -1.247788   1.000000
  121       -1.172794   1.000000
  122       -1.080706   1.000000
  123       -1.008136   1.000000
  124       -0.819043   1.000000
  125       -0.800218   1.000000
  126       -0.719606   1.000001
  127       -0.674434   1.000003
  128       -0.570643   1.000069
  129       -0.480164   1.000726
  130       -0.344558   1.010146
  131       -0.134925   1.006951
  132       -0.116172   0.985267
  133        0.007320   0.637086
  134        0.032682   0.531808
  135        0.072006   0.367308
  136        0.173206   0.052942
  137        0.274906  -0.035024
  138        0.311441  -0.033246
  139        0.408590  -0.012873
  140        0.522117  -0.001718
  141        0.530998  -0.001419
  142        0.613195  -0.000195
  143        0.691189  -0.000021
  144        0.713651  -0.000010
  145        0.852034  -0.000000
  146        0.876898  -0.000000
  147        0.955308  -0.000000
  148        0.977232  -0.000000
  149        1.089910  -0.000000
  150        1.151442  -0.000000
  151        1.162599  -0.000000
  152        1.173424  -0.000000
  153        1.231038  -0.000000
  154        1.264630  -0.000000
  155        1.334726  -0.000000
  156        1.344171  -0.000000
  157        1.366463  -0.000000
  158        1.381497  -0.000000
  159        1.429339  -0.000000
  160        1.445887  -0.000000
  161        1.486943  -0.000000
  162        1.518931  -0.000000
  163        1.535388  -0.000000
  164        1.573999  -0.000000
  165        1.623691  -0.000000
  166        1.628400  -0.000000
  167        1.635467  -0.000000
  168        1.702032  -0.000000
  169        1.722562  -0.000000
  170        1.759360  -0.000000
  171        1.809025  -0.000000
  172        1.854324  -0.000000
  173        1.874513  -0.000000
  174        1.878151  -0.000000
  175        1.972320  -0.000000
  176        2.064929  -0.000000

  0.3742002E-15  0.1111111E+00  0.1262379E-14  0.4444444E-01
    1      -13.900707   1.000000
    2      -12.850413   1.000000
    3      -12.630552   1.000000
    4      -12.475165   1.000000
    5      -12.021812   1.000000
    6      -11.684010   1.000000
    7      -11.638808   1.000000
    8      -11.440431   1.000000
    9      -11.399771   1.000000
   10      -11.302834   1.000000
   11      -11.115727   1.000000
   12      -11.002590   1.000000
   13      -10.777829   1.000000
   14      -10.415618   1.000000
   15      -10.242080   1.000000
   16      -10.208000   1.000000
   17      -10.100128   1.000000
   18      -10.078792   1.000000
   19       -9.788557   1.000000
   20       -9.765518   1.000000
   21       -9.551887   1.000000
   22       -9.512785   1.000000
   23       -9.383305   1.000000
   24       -9.279881   1.000000
   25       -8.995019   1.000000
   26       -8.845437   1.000000
   27       -8.559153   1.000000
   28       -8.331010   1.000000
   29       -8.285683   1.000000
   30       -8.206704   1.000000
   31       -7.992156   1.000000
   32       -7.895382   1.000000
   33       -7.749680   1.000000
   34       -7.448266   1.000000
   35       -7.420879   1.000000
   36       -7.291178   1.000000
   37       -7.057185   1.000000
   38       -6.921862   1.000000
   39       -6.824972   1.000000
   40       -6.716513   1.000000
   41       -6.692181   1.000000
   42       -6.585886   1.000000
   43       -6.492694   1.000000
   44       -6.382988   1.000000
   45       -6.253036   1.000000
   46       -6.206890   1.000000
   47       -6.171903   1.000000
   48       -6.110728   1.000000
   49       -6.083880   1.000000
   50       -5.959465   1.000000
   51       -5.843921   1.000000
   52       -5.711810   1.000000
   53       -5.670547   1.000000
   54       -5.538791   1.000000
   55       -5.507362   1.000000
   56       -5.434921   1.000000
   57       -5.350918   1.000000
   58       -5.232799   1.000000
   59       -5.192266   1.000000
   60       -5.156590   1.000000
   61       -5.107248   1.000000
   62       -5.011982   1.000000
   63       -4.849049   1.000000
   64       -4.802613   1.000000
   65       -4.740059   1.000000
   66       -4.664491   1.000000
   67       -4.603139   1.000000
   68       -4.533293   1.000000
   69       -4.494439   1.000000
   70       -4.461438   1.000000
   71       -4.392440   1.000000
   72       -4.319067   1.000000
   73       -4.289091   1.000000
   74       -4.112463   1.000000
   75       -4.082165   1.000000
   76       -4.053815   1.000000
   77       -4.009602   1.000000
   78       -3.949477   1.000000
   79       -3.913640   1.000000
   80       -3.853308   1.000000
   81       -3.768877   1.000000
   82       -3.718350   1.000000
   83       -3.682764   1.000000
   84       -3.622594   1.000000
   85       -3.553736   1.000000
   86       -3.450959   1.000000
   87       -3.398647   1.000000
   88       -3.386634   1.000000
   89       -3.302574   1.000000
   90       -3.199811   1.000000
   91       -3.149195   1.000000
   92       -3.124845   1.000000
   93       -3.071019   1.000000
   94       -2.961875   1.000000
   95       -2.894057   1.000000
   96       -2.800723   1.000000
   97       -2.743813   1.000000
   98       -2.599526   1.000000
   99       -2.571512   1.000000
  100       -2.516850   1.000000
  101       -2.457685   1.000000
  102       -2.432758   1.000000
  103       -2.409845   1.000000
  104       -2.322764   1.000000
  105       -2.287405   1.000000
  106       -2.221519   1.000000
  107       -2.207891   1.000000
  108       -2.185464   1.000000
  109       -2.098753   1.000000
  110       -1.990612   1.000000
  111       -1.921796   1.000000
  112       -1.821912   1.000000
  113       -1.734443   1.000000
  114       -1.612377   1.000000
  115       -1.573685   1.000000
  116       -1.555278   1.000000
  117       -1.512682   1.000000
  118       -1.341469   1.000000
  119       -1.233837   1.000000
  120       -1.149134   1.000000
  121       -0.982448   1.000000
  122       -0.930996   1.000000
  123       -0.837946   1.000000
  124       -0.768060   1.000000
  125       -0.665898   1.000004
  126       -0.594387   1.000034
  127       -0.463579   1.001064
  128       -0.387600   1.004973
  129       -0.331832   1.012228
  130       -0.254789   1.028752
  131       -0.126079   0.997655
  132       -0.088060   0.937698
  133        0.004209   0.649610
  134        0.039746   0.501941
  135        0.141509   0.126342
  136        0.240478  -0.025268
  137        0.249335  -0.029239
  138        0.296213  -0.035021
  139        0.367525  -0.021383
  140        0.434500  -0.008757
  141        0.548596  -0.000958
  142        0.608356  -0.000221
  143        0.636928  -0.000102
  144        0.718505  -0.000009
  145        0.766883  -0.000002
  146        0.798332  -0.000001
  147        0.914443  -0.000000
  148        0.947047  -0.000000
  149        0.990858  -0.000000
  150        1.020190  -0.000000
  151        1.089585  -0.000000
  152        1.099423  -0.000000
  153        1.136132  -0.000000
  154        1.200438  -0.000000
  155        1.240161  -0.000000
  156        1.291622  -0.000000
  157        1.309320  -0.000000
  158        1.333293  -0.000000
  159        1.346058  -0.000000
  160        1.386663  -0.000000
  161        1.404482  -0.000000
  162        1.426435  -0.000000
  163        1.473223  -0.000000
  164        1.486391  -0.000000
  165        1.535224  -0.000000
  166        1.574540  -0.000000
  167        1.589638  -0.000000
  168        1.630639  -0.000000
  169        1.723614  -0.000000
  170        1.780956  -0.000000
  171        1.838555  -0.000000
  172        1.864011  -0.000000
  173        1.907108  -0.000000
  174        1.995702  -0.000000
  175        2.087012  -0.000000
  176        2.118620  -0.000000

  0.2000000E+00  0.1111111E+00  0.1262379E-14  0.4444444E-01
    1      -13.874469   1.000000
    2      -12.977468   1.000000
    3      -12.725496   1.000000
    4      -12.172703   1.000000
    5      -12.022819   1.000000
    6      -11.974004   1.000000
    7      -11.478164   1.000000
    8      -11.423475   1.000000
    9      -11.233056   1.000000
   10      -11.227458   1.000000
   11      -11.088653   1.000000
   12      -11.007037   1.000000
   13      -10.748435   1.000000
   14      -10.535887   1.000000
   15      -10.460254   1.000000
   16      -10.244147   1.000000
   17      -10.209472   1.000000
   18      -10.106997   1.000000
   19       -9.809801   1.000000
   20       -9.756505   1.000000
   21       -9.562427   1.000000
   22       -9.541251   1.000000
   23       -9.357024   1.000000
   24       -9.237609   1.000000
   25       -8.954246   1.000000
   26       -8.740868   1.000000
   27       -8.420110   1.000000
   28       -8.282849   1.000000
   29       -8.219646   1.000000
   30       -8.146962   1.000000
   31       -8.030086   1.000000
   32       -7.859677   1.000000
   33       -7.660526   1.000000
   34       -7.523711   1.000000
   35       -7.464420   1.000000
   36       -7.319741   1.000000
   37       -7.091784   1.000000
   38       -6.932154   1.000000
   39       -6.910932   1.000000
   40       -6.798942   1.000000
   41       -6.746126   1.000000
   42       -6.620847   1.000000
   43       -6.544904   1.000000
   44       -6.522768   1.000000
   45       -6.353769   1.000000
   46       -6.299580   1.000000
   47       -6.125599   1.000000
   48       -6.053342   1.000000
   49       -5.926318   1.000000
   50       -5.898642   1.000000
   51       -5.809792   1.000000
   52       -5.749632   1.000000
   53       -5.593821   1.000000
   54       -5.557242   1.000000
   55       -5.509365   1.000000
   56       -5.437696   1.000000
   57       -5.289083   1.000000
   58       -5.226345   1.000000
   59       -5.171805   1.000000
   60       -5.073582   1.000000
   61       -5.036528   1.000000
   62       -5.001331   1.000000
   63       -4.949166   1.000000
   64       -4.762340   1.000000
   65       -4.721020   1.000000
   66       -4.645786   1.000000
   67       -4.563899   1.000000
   68       -4.519613   1.000000
   69       -4.476162   1.000000
   70       -4.421476   1.000000
   71       -4.354770   1.000000
   72       -4.309095   1.000000
   73       -4.275321   1.000000
   74       -4.153758   1.000000
   75       -4.122301   1.000000
   76       -4.053665   1.000000
   77       -4.036570   1.000000
   78       -3.988192   1.000000
   79       -3.909133   1.000000
   80       -3.845055   1.000000
   81       -3.830184   1.000000
   82       -3.791408   1.000000
   83       -3.677301   1.000000
   84       -3.629302   1.000000
   85       -3.545744   1.000000
   86       -3.493617   1.000000
   87       -3.427877   1.000000
   88       -3.362219   1.000000
   89       -3.310220   1.000000
   90       -3.232918   1.000000
   91       -3.139502   1.000000
   92       -3.130397   1.000000
   93       -3.020420   1.000000
   94       -2.967528   1.000000
   95       -2.899462   1.000000
   96       -2.827153   1.000000
   97       -2.708012   1.000000
   98       -2.682877   1.000000
   99       -2.607614   1.000000
  100       -2.529308   1.000000
  101       -2.505496   1.000000
  102       -2.482816   1.000000
  103       -2.346244   1.000000
  104       -2.287063   1.000000
  105       -2.234945   1.000000
  106       -2.198489   1.000000
  107       -2.177442   1.000000
  108       -2.131796   1.000000
  109       -2.076841   1.000000
  110       -1.935850   1.000000
  111       -1.870053   1.000000
  112       -1.788149   1.000000
  113       -1.700564   1.000000
  114       -1.627060   1.000000
  115       -1.563474   1.000000
  116       -1.531901   1.000000
  117       -1.494882   1.000000
  118       -1.349801   1.000000
  119       -1.243141   1.000000
  120       -1.184483   1.000000
  121       -1.090997   1.000000
  122       -0.970084   1.000000
  123       -0.847165   1.000000
  124       -0.798393   1.000000
  125       -0.699796   1.000001
  126       -0.659061   1.000004
  127       -0.501591   1.000433
  128       -0.391976   1.004594
  129       -0.373103   1.006410
  130       -0.286148   1.021604
  131       -0.144251   1.015068
  132       -0.079929   0.920317
  133       -0.001197   0.671093
  134        0.055119   0.437090
  135        0.098673   0.263934
  136        0.161618   0.076840
  137        0.257779  -0.032007
  138        0.301489  -0.034540
  139        0.446500  -0.007212
  140        0.477199  -0.004205
  141        0.539449  -0.001178
  142        0.610698  -0.000208
  143        0.634671  -0.000109
  144        0.756970  -0.000002
  145        0.808653  -0.000000
  146        0.842238  -0.000000
  147        0.917108  -0.000000
  148        0.950958  -0.000000
  149        1.011048  -0.000000
  150        1.054344  -0.000000
  151        1.109575  -0.000000
  152        1.142301  -0.000000
  153        1.180683  -0.000000
  154        1.214705  -0.000000
  155        1.259438  -0.000000
  156        1.299390  -0.000000
  157        1.319526  -0.000000
  158        1.349941  -0.000000
  159        1.369219  -0.000000
  160        1.391289  -0.000000
  161        1.417773  -0.000000
  162        1.445097  -0.000000
  163        1.483238  -0.000000
  164        1.500236  -0.000000
  165        1.530743  -0.000000
  166        1.585057  -0.000000
  167        1.611680  -0.000000
  168        1.670321  -0.000000
  169        1.741628  -0.000000
  170        1.780041  -0.000000
  171        1.814028  -0.000000
  172        1.854590  -0.000000
  173        1.905276  -0.000000
  174        1.973737  -0.000000
  175        2.033218  -0.000000
  176        2.067134  -0.000000

  0.4000000E+00  0.1111111E+00  0.1262379E-14  0.4444444E-01
    1      -13.822099   1.000000
    2      -13.172825   1.000000
    3      -12.643804   1.000000
    4      -12.312391   1.000000
    5      -12.012553   1.000000
    6      -11.626615   1.000000
    7      -11.515570   1.000000
    8      -11.424519   1.000000
    9      -11.154425   1.000000
   10      -11.121442   1.000000
   11      -11.009613   1.000000