   75   75    1    1
  0.2059393E+02  0.1036705E-08  0.2428040E-08  0.6136055E-09  0.5000000E-15
   1.0000000000000000E-004
  CAR 
 Name                                    
    279     23    184

  0.3742002E-15  0.1262379E-14  0.3742002E-15  0.2222222E-01
    1      -13.921024   1.000000
    2      -12.748331   1.000000
    3      -12.728734   1.000000
    4      -12.714432   1.000000
    5      -11.795156   1.000000
    6      -11.631182   1.000000
    7      -11.565469   1.000000
    8      -11.375546   1.000000
    9      -11.363303   1.000000
   10      -11.192677   1.000000
   11      -11.166578   1.000000
   12      -10.913028   1.000000
   13      -10.858821   1.000000
   14      -10.402404   1.000000
   15      -10.350292   1.000000
   16      -10.253661   1.000000
   17      -10.066918   1.000000
   18       -9.965180   1.000000
   19       -9.750725   1.000000
   20       -9.514216   1.000000
   21       -9.480201   1.000000
   22       -9.397841   1.000000
   23       -9.353324   1.000000
   24       -9.263867   1.000000
   25       -8.754569   1.000000
   26       -8.725206   1.000000
   27       -8.658682   1.000000
   28       -8.342928   1.000000
   29       -8.298000   1.000000
   30       -8.042129   1.000000
   31       -8.018527   1.000000
   32       -7.761746   1.000000
   33       -7.663309   1.000000
   34       -7.326201   1.000000
   35       -7.253116   1.000000
   36       -7.096723   1.000000
   37       -7.020023   1.000000
   38       -6.916551   1.000000
   39       -6.720620   1.000000
   40       -6.677543   1.000000
   41       -6.589915   1.000000
   42       -6.579429   1.000000
   43       -6.576955   1.000000
   44       -6.483863   1.000000
   45       -6.323687   1.000000
   46       -6.135919   1.000000
   47       -6.121941   1.000000
   48       -5.998240   1.000000
   49       -5.981521   1.000000
   50       -5.835864   1.000000
   51       -5.668797   1.000000
   52       -5.606667   1.000000
   53       -5.534918   1.000000
   54       -5.528818   1.000000
   55       -5.501398   1.000000
   56       -5.479354   1.000000
   57       -5.350371   1.000000
   58       -5.272855   1.000000
   59       -5.256157   1.000000
   60       -5.105902   1.000000
   61       -5.089682   1.000000
   62       -5.004774   1.000000
   63       -4.933890   1.000000
   64       -4.622089   1.000000
   65       -4.565597   1.000000
   66       -4.542495   1.000000
   67       -4.431815   1.000000
   68       -4.405924   1.000000
   69       -4.283067   1.000000
   70       -4.116420   1.000000
   71       -3.996661   1.000000
   72       -3.982839   1.000000
   73       -3.929679   1.000000
   74       -3.899288   1.000000
   75       -3.860293   1.000000
   76       -3.814432   1.000000
   77       -3.804206   1.000000
   78       -3.793109   1.000000
   79       -3.782047   1.000000
   80       -3.768300   1.000000
   81       -3.647066   1.000000
   82       -3.512658   1.000000
   83       -3.476710   1.000000
   84       -3.464936   1.000000
   85       -3.450684   1.000000
   86       -3.416483   1.000000
   87       -3.390302   1.000000
   88       -3.377316   1.000000
   89       -3.362015   1.000000
   90       -3.339227   1.000000
   91       -3.321785   1.000000
   92       -3.302309   1.000000
   93       -3.131273   1.000000
   94       -3.121190   1.000000
   95       -2.905553   1.000000
   96       -2.805573   1.000000
   97       -2.789968   1.000000
   98       -2.739017   1.000000
   99       -2.656873   1.000000
  100       -2.576421   1.000000
  101       -2.459624   1.000000
  102       -2.319781   1.000000
  103       -2.266656   1.000000
  104       -2.220629   1.000000
  105       -2.165852   1.000000
  106       -2.111036   1.000000
  107       -1.989436   1.000000
  108       -1.944012   1.000000
  109       -1.891604   1.000000
  110       -1.877441   1.000000
  111       -1.821757   1.000000
  112       -1.755508   1.000000
  113       -1.734757   1.000000
  114       -1.638724   1.000000
  115       -1.569793   1.000000
  116       -1.486893   1.000000
  117       -1.468590   1.000000
  118       -1.437064   1.000000
  119       -1.407179   1.000000
  120       -1.302428   1.000000
  121       -1.234160   1.000000
  122       -1.091837   1.000000
  123       -0.745394   1.000000
  124       -0.708995   1.000000
  125       -0.679498   1.000000
  126       -0.515640   1.000000
  127       -0.334253   1.000000
  128       -0.300094   1.000000
  129       -0.293916   1.000000
  130       -0.211854   1.000000
  131        0.046895   1.000000
  132        0.083021   1.000000
  133        0.212660   1.000287
  134        0.357528   1.033669
  135        0.386205   1.029929
  136        0.417687   0.973104
  137        0.426590   0.941627
  138        0.479034   0.606232
  139        0.576440  -0.001201
  140        0.602355  -0.032944
  141        0.637427  -0.029508
  142        0.688095  -0.008966
  143        0.707142  -0.004704
  144        0.727300  -0.002150
  145        0.737577  -0.001389
  146        0.741465  -0.001170
  147        0.774281  -0.000239
  148        0.904638  -0.000000
  149        0.955068  -0.000000
  150        0.955342  -0.000000
  151        1.162426  -0.000000
  152        1.187900  -0.000000
  153        1.226739  -0.000000
  154        1.259410  -0.000000
  155        1.303198  -0.000000
  156        1.324163  -0.000000
  157        1.341225  -0.000000
  158        1.444664  -0.000000
  159        1.491121  -0.000000
  160        1.498422  -0.000000
  161        1.501750  -0.000000
  162        1.548761  -0.000000
  163        1.558210  -0.000000
  164        1.569047  -0.000000
  165        1.656387  -0.000000
  166        1.717947  -0.000000
  167        1.752483  -0.000000
  168        1.759792  -0.000000
  169        1.779318  -0.000000
  170        1.804146  -0.000000
  171        1.814916  -0.000000
  172        1.825274  -0.000000
  173        1.840767  -0.000000
  174        1.893645  -0.000000
  175        1.907835  -0.000000
  176        1.921719  -0.000000
  177        1.939661  -0.000000
  178        2.253561  -0.000000
  179        2.455785  -0.000000
  180        2.513183  -0.000000
  181        2.553637  -0.000000
  182        2.772942  -0.000000
  183        2.867846  -0.000000
  184        3.617628   0.000000

  0.2000000E+00  0.1262379E-14  0.3742002E-15  0.4444444E-01
    1      -13.871652   1.000000
    2      -13.150880   1.000000
    3      -12.674390   1.000000
    4      -12.245269   1.000000
    5      -11.992966   1.000000
    6      -11.778700   1.000000
    7      -11.525876   1.000000
    8      -11.183441   1.000000
    9      -11.174316   1.000000
   10      -11.157666   1.000000
   11      -11.106893   1.000000
   12      -10.987087   1.000000
   13      -10.755666   1.000000
   14      -10.530443   1.000000
   15      -10.484672   1.000000
   16      -10.438820   1.000000
   17      -10.384157   1.000000
   18       -9.772573   1.000000
   19       -9.715157   1.000000
   20       -9.548566   1.000000
   21       -9.409757   1.000000
   22       -9.371376   1.000000
   23       -9.330585   1.000000
   24       -9.243796   1.000000
   25       -8.946333   1.000000
   26       -8.826098   1.000000
   27       -8.272113   1.000000
   28       -8.199619   1.000000
   29       -8.102874   1.000000
   30       -8.048675   1.000000
   31       -7.981240   1.000000
   32       -7.941534   1.000000
   33       -7.537795   1.000000
   34       -7.433093   1.000000
   35       -7.286588   1.000000
   36       -7.185119   1.000000
   37       -7.100108   1.000000
   38       -7.057182   1.000000
   39       -6.785199   1.000000
   40       -6.759799   1.000000
   41       -6.641378   1.000000
   42       -6.539825   1.000000
   43       -6.512461   1.000000
   44       -6.491880   1.000000
   45       -6.307731   1.000000
   46       -6.193997   1.000000
   47       -6.055524   1.000000
   48       -5.967785   1.000000
   49       -5.948460   1.000000
   50       -5.906550   1.000000
   51       -5.674071   1.000000
   52       -5.637588   1.000000
   53       -5.572589   1.000000
   54       -5.529268   1.000000
   55       -5.436611   1.000000
   56       -5.254543   1.000000
   57       -5.218879   1.000000
   58       -5.215779   1.000000
   59       -5.145045   1.000000
   60       -5.093478   1.000000
   61       -5.077126   1.000000
   62       -4.977807   1.000000
   63       -4.909391   1.000000
   64       -4.866882   1.000000
   65       -4.694570   1.000000
   66       -4.602425   1.000000
   67       -4.448723   1.000000
   68       -4.370504   1.000000
   69       -4.264098   1.000000
   70       -4.137564   1.000000
   71       -3.999411   1.000000
   72       -3.973133   1.000000
   73       -3.964927   1.000000
   74       -3.951260   1.000000
   75       -3.907379   1.000000
   76       -3.870335   1.000000
   77       -3.782720   1.000000
   78       -3.752220   1.000000
   79       -3.713867   1.000000
   80       -3.634804   1.000000
   81       -3.615489   1.000000
   82       -3.570194   1.000000
   83       -3.501997   1.000000
   84       -3.485560   1.000000
   85       -3.464153   1.000000
   86       -3.431462   1.000000
   87       -3.389053   1.000000
   88       -3.366491   1.000000
   89       -3.337845   1.000000
   90       -3.325567   1.000000
   91       -3.322735   1.000000
   92       -3.273600   1.000000
   93       -3.192981   1.000000
   94       -3.151513   1.000000
   95       -2.918461   1.000000
   96       -2.856087   1.000000
   97       -2.826327   1.000000
   98       -2.702641   1.000000
   99       -2.653571   1.000000
  100       -2.567460   1.000000
  101       -2.484896   1.000000
  102       -2.372344   1.000000
  103       -2.251206   1.000000
  104       -2.224044   1.000000
  105       -2.196303   1.000000
  106       -2.084064   1.000000
  107       -1.985298   1.000000
  108       -1.881516   1.000000
  109       -1.840844   1.000000
  110       -1.808655   1.000000
  111       -1.789473   1.000000
  112       -1.725640   1.000000
  113       -1.719031   1.000000
  114       -1.689304   1.000000
  115       -1.504694   1.000000
  116       -1.475552   1.000000
  117       -1.411552   1.000000
  118       -1.342364   1.000000
  119       -1.318743   1.000000
  120       -1.281498   1.000000
  121       -1.183047   1.000000
  122       -1.057235   1.000000
  123       -0.793055   1.000000
  124       -0.750103   1.000000
  125       -0.693587   1.000000
  126       -0.630531   1.000000
  127       -0.447576   1.000000
  128       -0.311048   1.000000
  129       -0.297346   1.000000
  130       -0.279358   1.000000
  131       -0.111822   1.000000
  132       -0.081234   1.000000
  133        0.035316   1.000000
  134        0.228734   1.000636
  135        0.263019   1.002845
  136        0.349468   1.030928
  137        0.427469   0.938094
  138        0.484752   0.558639
  139        0.560336   0.044977
  140        0.683855  -0.010215
  141        0.718864  -0.003020
  142        0.741020  -0.001194
  143        0.758142  -0.000538
  144        0.765439  -0.000376
  145        0.788699  -0.000110
  146        0.799112  -0.000061
  147        0.836374  -0.000006
  148        0.903191  -0.000000
  149        0.918590  -0.000000
  150        1.015815  -0.000000
  151        1.195773  -0.000000
  152        1.243093  -0.000000
  153        1.272162  -0.000000
  154        1.302313  -0.000000
  155        1.378757  -0.000000
  156        1.403625  -0.000000
  157        1.412424  -0.000000
  158        1.456874  -0.000000
  159        1.474153  -0.000000
  160        1.493764  -0.000000
  161        1.555013  -0.000000
  162        1.569201  -0.000000
  163        1.583092  -0.000000
  164        1.621835  -0.000000
  165        1.632634  -0.000000
  166        1.720260  -0.000000
  167        1.744552  -0.000000
  168        1.751057  -0.000000
  169        1.770486  -0.000000
  170        1.797473  -0.000000
  171        1.818112  -0.000000
  172        1.849179  -0.000000
  173        1.886453  -0.000000
  174        1.922569  -0.000000
  175        1.970529  -0.000000
  176        1.985998  -0.000000
  177        2.081871  -0.000000
  178        2.234694  -0.000000
  179        2.320035  -0.000000
  180        2.369441  -0.000000
  181        2.579554  -0.000000
  182        2.765558  -0.000000
  183        2.799197  -0.000000
  184        3.773867   0.000000

  0.4000000E+00  0.1262379E-14  0.3742002E-15  0.4444444E-01
    1      -13.724599   1.000000
    2      -13.482504   1.000000
    3      -12.537105   1.000000
    4      -12.306641   1.000000
    5      -11.729516   1.000000
    6      -11.688057   1.000000
    7      -11.645369   1.000000
    8      -11.143214   1.000000
    9      -11.097455   1.000000
   10      -11.082910   1.000000
   11      -11.015564   1.000000
   12      -10.929409   1.000000
   13      -10.810248   1.000000
   14      -10.696230   1.000000
   15      -10.615215   1.000000
   16      -10.578179   1.000000
   17      -10.480723   1.000000
   18      -10.000547   1.000000
   19       -9.732949   1.000000
   20       -9.602236   1.000000
   21       -9.369411   1.000000
   22       -9.323798   1.000000
   23       -9.277841   1.000000
   24       -9.169101   1.000000
   25       -9.012630   1.000000
   26       -8.692021   1.000000
   27       -8.228000   1.000000
   28       -8.040012   1.000000
   29       -7.869064   1.000000
   30       -7.815268   1.000000
   31       -7.774897   1.000000
   32       -7.719759   1.000000
   33       -7.657735   1.000000
   34       -7.607148   1.000000
   35       -7.433211   1.000000
   36       -7.383678   1.000000
   37       -7.268960   1.000000
   38       -7.249379   1.000000
   39       -7.130018   1.000000
   40       -6.859062   1.000000
   41       -6.673946   1.000000
   42       -6.579591   1.000000
   43       -6.490868   1.000000
   44       -6.331676   1.000000
   45       -6.257670   1.000000
   46       -6.127777   1.000000
   47       -5.998639   1.000000
   48       -5.867286   1.000000
   49       -5.808433   1.000000
   50       -5.788704   1.000000
   51       -5.721049   1.000000
   52       -5.709216   1.000000
   53       -5.606534   1.000000
   54       -5.591128   1.000000
   55       -5.459005   1.000000
   56       -5.313223   1.000000
   57       -5.305687   1.000000
   58       -5.129269   1.000000
   59       -5.041770   1.000000
   60       -5.027201   1.000000
   61       -4.984269   1.000000
   62       -4.955341   1.000000
   63       -4.840188   1.000000
   64       -4.752652   1.000000
   65       -4.686159   1.000000
   66       -4.581427   1.000000
   67       -4.449190   1.000000
   68       -4.402881   1.000000
   69       -4.254364   1.000000
   70       -4.228993   1.000000
   71       -4.182788   1.000000
   72       -4.066308   1.000000
   73       -3.992338   1.000000
   74       -3.918638   1.000000
   75       -3.891792   1.000000
   76       -3.875046   1.000000
   77       -3.855624   1.000000
   78       -3.832087   1.000000
   79       -3.805213   1.000000
   80       -3.678133   1.000000
   81       -3.571918   1.000000
   82       -3.556836   1.000000
   83       -3.549511   1.000000
   84       -3.543485   1.000000
   85       -3.496564   1.000000
   86       -3.413963   1.000000
   87       -3.350996   1.000000
   88       -3.315962   1.000000
   89       -3.309473   1.000000
   90       -3.197134   1.000000
   91       -3.178090   1.000000
   92       -3.150023   1.000000
   93       -3.131914   1.000000
   94       -3.101319   1.000000
   95       -2.980493   1.000000
   96       -2.969489   1.000000
   97       -2.910761   1.000000
   98       -2.815096   1.000000
   99       -2.702983   1.000000
  100       -2.690042   1.000000
  101       -2.521437   1.000000
  102       -2.380032   1.000000
  103       -2.247608   1.000000
  104       -2.195374   1.000000
  105       -2.062421   1.000000
  106       -2.051288   1.000000
  107       -2.027212   1.000000
  108       -1.917914   1.000000
  109       -1.836027   1.000000
  110       -1.827712   1.000000
  111       -1.809740   1.000000
  112       -1.678583   1.000000
  113       -1.531660   1.000000
  114       -1.469319   1.000000
  115       -1.430624   1.000000
  116       -1.406121   1.000000
  117       -1.375518   1.000000
  118       -1.230126   1.000000
  119       -1.147247   1.000000
  120       -1.105428   1.000000
  121       -0.974547   1.000000
  122       -0.943641   1.000000
  123       -0.924332   1.000000
  124       -0.902020   1.000000
  125       -0.796580   1.000000
  126       -0.724113   1.000000
  127       -0.616766   1.000000
  128       -0.576832   1.000000
  129       -0.559366   1.000000
  130       -0.437371   1.000000
  131       -0.278800   1.000000
  132       -0.262504   1.000000
  133        0.020917   1.000000
  134        0.040267   1.000000
  135        0.191389   1.000092
  136        0.392788   1.023960
  137        0.425160   0.947206
  138        0.469945   0.679358
  139        0.540269   0.137858
  140        0.641588  -0.027701
  141        0.672368  -0.014176
  142        0.684185  -0.010114
  143        0.756354  -0.000587
  144        0.778103  -0.000196
  145        0.812949  -0.000027
  146        0.842811  -0.000004
  147        0.929194  -0.000000
  148        1.039928  -0.000000
  149        1.077982  -0.000000
  150        1.092710  -0.000000
  151        1.223812  -0.000000
  152        1.303960  -0.000000
  153        1.321968  -0.000000
  154        1.365839  -0.000000
  155        1.402089  -0.000000
  156        1.435405  -0.000000
  157        1.496879  -0.000000
  158        1.540892  -0.000000
  159        1.593838  -0.000000
  160        1.598079  -0.000000
  161        1.604124  -0.000000
  162        1.628196  -0.000000
  163        1.630298  -0.000000
  164        1.686195  -0.000000
  165        1.720557  -0.000000
  166        1.738179  -0.000000
  167        1.753810  -0.000000
  168        1.762162  -0.000000
  169        1.787585  -0.000000
  170        1.832473  -0.000000
  171        1.865257  -0.000000
  172        1.889918  -0.000000
  173        1.932534  -0.000000
  174        1.948652  -0.000000
  175        2.007772  -0.000000
  176        2.029625  -0.000000
  177        2.042474  -0.000000
  178        2.108974  -0.000000
  179        2.183120  -0.000000
  180        2.298575  -0.000000
  181        2.451412  -0.000000
  182        2.827735  -0.000000
  183        2.846031  -0.000000
  184        3.128016  -0.000000

  0.3742002E-15  0.1262379E-14  0.1111111E+00  0.4444444E-01
    1      -13.875685   1.000000
    2      -12.713117   1.000000
    3      -12.694149   1.000000
    4      -12.676792   1.000000
    5      -11.899806   1.000000
    6      -11.603018   1.000000
    7      -11.537044   1.000000
    8      -11.421342   1.000000
    9      -11.409376   1.000000
   10      -11.257763   1.000000
   11      -11.131781   1.000000
   12      -10.923752   1.000000
   13      -10.870552   1.000000
   14      -10.400602   1.000000
   15      -10.353277   1.000000
   16      -10.230725   1.000000
   17      -10.047847   1.000000
   18       -9.927319   1.000000
   19       -9.765465   1.000000
   20       -9.535436   1.000000
   21       -9.472598   1.000000
   22       -9.424987   1.000000
   23       -9.336154   1.000000
   24       -9.268902   1.000000
   25       -8.758051   1.000000
   26       -8.724046   1.000000
   27       -8.654347   1.000000
   28       -8.336505   1.000000
   29       -8.310078   1.000000
   30       -8.053824   1.000000
   31       -7.858356   1.000000
   32       -7.775310   1.000000
   33       -7.749821   1.000000
   34       -7.392859   1.000000
   35       -7.263379   1.000000
   36       -7.199492   1.000000
   37       -7.026121   1.000000
   38       -6.885039   1.000000
   39       -6.739537   1.000000
   40       -6.657763   1.000000
   41       -6.531786   1.000000
   42       -6.518473   1.000000
   43       -6.514210   1.000000
   44       -6.456530   1.000000
   45       -6.317730   1.000000
   46       -6.151109   1.000000
   47       -6.140016   1.000000
   48       -6.027772   1.000000
   49       -6.018216   1.000000
   50       -5.796708   1.000000
   51       -5.641153   1.000000
   52       -5.610091   1.000000
   53       -5.564983   1.000000
   54       -5.550913   1.000000
   55       -5.514065   1.000000
   56       -5.350512   1.000000
   57       -5.306739   1.000000
   58       -5.252773   1.000000
   59       -5.203867   1.000000
   60       -5.110279   1.000000
   61       -5.031234   1.000000
   62       -4.987256   1.000000
   63       -4.910270   1.000000
   64       -4.565670   1.000000
   65       -4.522234   1.000000
   66       -4.513790   1.000000
   67       -4.425798   1.000000
   68       -4.397257   1.000000
   69       -4.270010   1.000000
   70       -4.124430   1.000000
   71       -4.027570   1.000000
   72       -3.986743   1.000000
   73       -3.954211   1.000000
   74       -3.922416   1.000000
   75       -3.873057   1.000000
   76       -3.842380   1.000000
   77       -3.835954   1.000000
   78       -3.808672   1.000000
   79       -3.803665   1.000000
   80       -3.796452   1.000000
   81       -3.706091   1.000000
   82       -3.640536   1.000000
   83       -3.616980   1.000000
   84       -3.568055   1.000000
   85       -3.540573   1.000000
   86       -3.490076   1.000000
   87       -3.433011   1.000000
   88       -3.398207   1.000000
   89       -3.364871   1.000000
   90       -3.357471   1.000000
   91       -3.338228   1.000000
   92       -3.270001   1.000000
   93       -3.147413   1.000000
   94       -3.098454   1.000000
   95       -2.875749   1.000000
   96       -2.807789   1.000000
   97       -2.753116   1.000000
   98       -2.686233   1.000000
   99       -2.577403   1.000000
  100       -2.502347   1.000000
  101       -2.379348   1.000000
  102       -2.346589   1.000000
  103       -2.330010   1.000000
  104       -2.282706   1.000000
  105       -2.134573   1.000000
  106       -2.088309   1.000000
  107       -2.054936   1.000000
  108       -1.951325   1.000000
  109       -1.895333   1.000000
  110       -1.859628   1.000000
  111       -1.832694   1.000000
  112       -1.781823   1.000000
  113       -1.678255   1.000000
  114       -1.631444   1.000000
  115       -1.576793   1.000000
  116       -1.566779   1.000000
  117       -1.484121   1.000000
  118       -1.399429   1.000000
  119       -1.377239   1.000000
  120       -1.214680   1.000000
  121       -1.155129   1.000000
  122       -1.000630   1.000000
  123       -0.785056   1.000000
  124       -0.772047   1.000000
  125       -0.611349   1.000000
  126       -0.494514   1.000000
  127       -0.441928   1.000000
  128       -0.393554   1.000000
  129       -0.337350   1.000000
  130       -0.097091   1.000000
  131       -0.058466   1.000000
  132       -0.027887   1.000000
  133        0.253714   1.001947
  134        0.291227   1.007873
  135        0.354937   1.032888
  136        0.383402   1.031733
  137        0.404741   1.005771
  138        0.419692   0.966687
  139        0.505777   0.382165
  140        0.542523   0.125412
  141        0.566289   0.025115
  142        0.568644   0.018186
  143        0.708241  -0.004519
  144        0.748108  -0.000866
  145        0.759752  -0.000498
  146        0.921462  -0.000000
  147        0.935583  -0.000000
  148        0.973540  -0.000000
  149        1.053959  -0.000000
  150        1.124820  -0.000000
  151        1.140854  -0.000000
  152        1.156712  -0.000000
  153        1.209221  -0.000000
  154        1.268117  -0.000000
  155        1.316264  -0.000000
  156        1.351573  -0.000000
  157        1.388185  -0.000000
  158        1.401210  -0.000000
  159        1.457539  -0.000000
  160        1.483784  -0.000000
  161        1.521203  -0.000000
  162        1.541129  -0.000000
  163        1.576557  -0.000000
  164        1.595843  -0.000000
  165        1.659081  -0.000000
  166        1.674976  -0.000000
  167        1.698921  -0.000000
  168        1.733358  -0.000000
  169        1.754852  -0.000000
  170        1.792415  -0.000000
  171        1.798276  -0.000000
  172        1.819027  -0.000000
  173        1.894171  -0.000000
  174        1.915848  -0.000000
  175        1.936263  -0.000000
  176        1.978331  -0.000000
  177        1.995519  -0.000000
  178        2.152590  -0.000000
  179        2.247279  -0.000000
  180        2.465834  -0.000000
  181        2.605542  -0.000000
  182        2.724902  -0.000000
  183        2.794221  -0.000000
  184        4.086927   0.000000

  0.2000000E+00  0.1262379E-14  0.1111111E+00  0.4444444E-01
    1      -13.826747   1.000000
    2      -13.112133   1.000000
    3      -12.636476   1.000000
    4      -12.216799   1.000000
    5      -11.960467   1.000000
    6      -11.880322   1.000000
    7      -11.587178   1.000000
    8      -11.242137   1.000000
    9      -11.210115   1.000000
   10      -11.125665   1.000000
   11      -11.082292   1.000000
   12      -11.008427   1.000000
   13      -10.756993   1.000000
   14      -10.507997   1.000000
   15      -10.468848   1.000000
   16      -10.421625   1.000000
   17      -10.396789   1.000000
   18       -9.780680   1.000000
   19       -9.708079   1.000000
   20       -9.533406   1.000000
   21       -9.419885   1.000000
   22       -9.384680   1.000000
   23       -9.324647   1.000000
   24       -9.247313   1.000000
   25       -8.947233   1.000000
   26       -8.815999   1.000000
   27       -8.293366   1.000000
   28       -8.194854   1.000000
   29       -8.082513   1.000000
   30       -8.060597   1.000000
   31       -8.001272   1.000000
   32       -7.790708   1.000000
   33       -7.614024   1.000000
   34       -7.512199   1.000000
   35       -7.277164   1.000000
   36       -7.234832   1.000000
   37       -7.090573   1.000000
   38       -6.985769   1.000000
   39       -6.806323   1.000000
   40       -6.769625   1.000000
   41       -6.634077   1.000000
   42       -6.545370   1.000000
   43       -6.485373   1.000000
   44       -6.430546   1.000000
   45       -6.361711   1.000000
   46       -6.305769   1.000000
   47       -6.064124   1.000000
   48       -5.992924   1.000000
   49       -5.872154   1.000000
   50       -5.743059   1.000000
   51       -5.669001   1.000000
   52       -5.644331   1.000000
   53       -5.583611   1.000000
   54       -5.546324   1.000000
   55       -5.443059   1.000000
   56       -5.286394   1.000000
   57       -5.161440   1.000000
   58       -5.133904   1.000000
   59       -5.117391   1.000000
   60       -5.070661   1.000000
   61       -5.019822   1.000000
   62       -4.953584   1.000000
   63       -4.891110   1.000000
   64       -4.867119   1.000000
   65       -4.653976   1.000000
   66       -4.564968   1.000000
   67       -4.430065   1.000000
   68       -4.303461   1.000000
   69       -4.265687   1.000000
   70       -4.129808   1.000000
   71       -4.038904   1.000000
   72       -4.016102   1.000000
   73       -3.969993   1.000000
   74       -3.942973   1.000000
   75       -3.889974   1.000000
   76       -3.880486   1.000000
   77       -3.835933   1.000000
   78       -3.824042   1.000000
   79       -3.762275   1.000000
   80       -3.687741   1.000000
   81       -3.646549   1.000000
   82       -3.626939   1.000000
   83       -3.608798   1.000000
   84       -3.582423   1.000000
   85       -3.539360   1.000000
   86       -3.509041   1.000000
   87       -3.457768   1.000000
   88       -3.403588   1.000000
   89       -3.382378   1.000000
   90       -3.351978   1.000000
   91       -3.292195   1.000000
   92       -3.215649   1.000000
   93       -3.169147   1.000000
   94       -3.117187   1.000000
   95       -2.878795   1.000000
   96       -2.802754   1.000000
   97       -2.759476   1.000000
   98       -2.731762   1.000000
   99       -2.678683   1.000000
  100       -2.548535   1.000000
  101       -2.476386   1.000000
  102       -2.372603   1.000000
  103       -2.245100   1.000000
  104       -2.220392   1.000000
  105       -2.172070   1.000000
  106       -2.082770   1.000000
  107       -2.043429   1.000000
  108       -1.916557   1.000000
  109       -1.859903   1.000000
  110       -1.835514   1.000000
  111       -1.814458   1.000000
  112       -1.720554   1.000000
  113       -1.652476   1.000000
  114       -1.614590   1.000000
  115       -1.556900   1.000000
  116       -1.489910   1.000000
  117       -1.462040   1.000000
  118       -1.367094   1.000000
  119       -1.286610   1.000000
  120       -1.252326   1.000000
  121       -1.146740   1.000000
  122       -1.008510   1.000000
  123       -0.844476   1.000000
  124       -0.747174   1.000000
  125       -0.726831   1.000000
  126       -0.580999   1.000000
  127       -0.521667   1.000000
  128       -0.497459   1.000000
  129       -0.268024   1.000000
  130       -0.255616   1.000000
  131       -0.073334   1.000000
  132        0.076178   1.000000
  133        0.196971   1.000125
  134        0.239715   1.001059
  135        0.259502   1.002471
  136        0.285509   1.006512
  137        0.334011   1.024136
  138        0.416815   0.975776
  139        0.479267   0.604315
  140        0.568264   0.019270
  141        0.622418  -0.034524
  142        0.649364  -0.024147
  143        0.723376  -0.002524
  144        0.764951  -0.000385
  145        0.787294  -0.000119
  146        0.904072  -0.000000
  147        0.979888  -0.000000
  148        1.012671  -0.000000
  149        1.045452  -0.000000
  150        1.114489  -0.000000
  151        1.151217  -0.000000
  152        1.170997  -0.000000
  153        1.281759  -0.000000
  154        1.354079  -0.000000
  155        1.394471  -0.000000
  156        1.414505  -0.000000
  157        1.443587  -0.000000