 running on   72 total cores
 distrk:  each k-point on   72 cores,    1 groups
 distr:  one band on    9 cores,    8 groups
 using from now: INCAR     
 vasp.5.4.4.18Apr17-6-g9f103f2a35 (build Dec  7 2020 12:43:57) complex           
 POSCAR found type information on POSCAR  Mo V  B  H 
 POSCAR found :  4 types and      75 ions
 scaLAPACK will be used

 ----------------------------------------------------------------------------- 
|                                                                             |
|  ADVICE TO THIS USER RUNNING 'VASP/VAMP'   (HEAR YOUR MASTER'S VOICE ...):  |
|                                                                             |
|      You enforced a specific xc-type in the INCAR file,                     |
|      a different type was found on the POTCAR file                          |
|          I HOPE YOU KNOW, WHAT YOU ARE  DOING                               |
|                                                                             |
 ----------------------------------------------------------------------------- 

 LDA part: xc-table for Pade appr. of Perdew
 POSCAR, INCAR and KPOINTS ok, starting setup
 resort distribution
 resort distribution
 resort distribution
 resort distribution
 resort distribution
 resort distribution
 resort distribution
 resort distribution
 resort distribution
 resort distribution
 resort distribution
 resort distribution
 resort distribution
 resort distribution
 resort distribution
 resort distribution
 resort distribution
 resort distribution
 resort distribution
 resort distribution
 resort distribution
 resort distribution
 resort distribution
 resort distribution
 resort distribution
 resort distribution
 resort distribution
 resort distribution
 resort distribution
 resort distribution
 resort distribution
 resort distribution
 resort distribution
 resort distribution
 resort distribution
 resort distribution
 resort distribution
 resort distribution
 resort distribution
 resort distribution
 resort distribution
 resort distribution
 resort distribution
 resort distribution
 resort distribution
 resort distribution
 resort distribution
 resort distribution
 resort distribution
 resort distribution
 resort distribution
 resort distribution
 resort distribution
 resort distribution
 resort distribution
 resort distribution
 resort distribution
 resort distribution
 resort distribution
 resort distribution
 resort distribution
 resort distribution
 resort distribution
 resort distribution
 resort distribution
 resort distribution
 resort distribution
 resort distribution
 resort distribution
 resort distribution
 resort distribution
 resort distribution
 FFT: planning ...
 WAVECAR not read
 augmentation electrons   279.02614279474244     
 soft         electrons   0.0000000000000000     
 augmentation electrons   279.02614279474244     
 soft         electrons   0.0000000000000000     
 augmentation electrons   279.02614279474244     
 soft         electrons   0.0000000000000000     
 augmentation electrons   279.02614279474244     
 soft         electrons   0.0000000000000000     
 augmentation electrons   279.02614279474244     
 soft         electrons   0.0000000000000000     
 augmentation electrons   279.02614279474244     
 soft         electrons   0.0000000000000000     
 augmentation electrons   279.02614279474244     
 soft         electrons   0.0000000000000000     
 augmentation electrons   279.02614279474244     
 soft         electrons   0.0000000000000000     
 augmentation electrons   279.02614279474244     
 soft         electrons   0.0000000000000000     
 augmentation electrons   279.02614279474244     
 soft         electrons   0.0000000000000000     
 augmentation electrons   279.02614279474244     
 soft         electrons   0.0000000000000000     
 augmentation electrons   279.02614279474244     
 soft         electrons   0.0000000000000000     
 augmentation electrons   279.02614279474244     
 soft         electrons   0.0000000000000000     
 augmentation electrons   279.02614279474244     
 soft         electrons   0.0000000000000000     
 augmentation electrons   279.02614279474244     
 soft         electrons   0.0000000000000000     
 augmentation electrons   279.02614279474244     
 soft         electrons   0.0000000000000000     
 augmentation electrons   279.02614279474244     
 soft         electrons   0.0000000000000000     
 augmentation electrons   279.02614279474244     
 soft         electrons   0.0000000000000000     
 augmentation electrons   279.02614279474244     
 soft         electrons   0.0000000000000000     
 augmentation electrons   279.02614279474244     
 soft         electrons   0.0000000000000000     
 augmentation electrons   279.02614279474244     
 soft         electrons   0.0000000000000000     
 augmentation electrons   279.02614279474244     
 soft         electrons   0.0000000000000000     
 augmentation electrons   279.02614279474244     
 soft         electrons   0.0000000000000000     
 augmentation electrons   279.02614279474244     
 soft         electrons   0.0000000000000000     
 augmentation electrons   279.02614279474244     
 soft         electrons   0.0000000000000000     
 augmentation electrons   279.02614279474244     
 soft         electrons   0.0000000000000000     
 augmentation electrons   279.02614279474244     
 soft         electrons   0.0000000000000000     
 augmentation electrons   279.02614279474244     
 soft         electrons   0.0000000000000000     
 augmentation electrons   279.02614279474244     
 soft         electrons   0.0000000000000000     
 augmentation electrons   279.02614279474244     
 soft         electrons   0.0000000000000000     
 augmentation electrons   279.02614279474244     
 soft         electrons   0.0000000000000000     
 augmentation electrons   279.02614279474244     
 soft         electrons   0.0000000000000000     
 augmentation electrons   279.02614279474244     
 soft         electrons   0.0000000000000000     
 augmentation electrons   279.02614279474244     
 soft         electrons   0.0000000000000000     
 augmentation electrons   279.02614279474244     
 soft         electrons   0.0000000000000000     
 augmentation electrons   279.02614279474244     
 soft         electrons   0.0000000000000000     
 augmentation electrons   279.02614279474244     
 soft         electrons   0.0000000000000000     
 augmentation electrons   279.02614279474244     
 soft         electrons   0.0000000000000000     
 augmentation electrons   279.02614279474244     
 soft         electrons   0.0000000000000000     
 augmentation electrons   279.02614279474244     
 soft         electrons   0.0000000000000000     
 augmentation electrons   279.02614279474244     
 soft         electrons   0.0000000000000000     
 augmentation electrons   279.02614279474244     
 soft         electrons   0.0000000000000000     
 augmentation electrons   279.02614279474244     
 soft         electrons   0.0000000000000000     
 augmentation electrons   279.02614279474244     
 soft         electrons   0.0000000000000000     
 augmentation electrons   279.02614279474244     
 soft         electrons   0.0000000000000000     
 augmentation electrons   279.02614279474244     
 soft         electrons   0.0000000000000000     
 augmentation electrons   279.02614279474244     
 soft         electrons   0.0000000000000000     
 augmentation electrons   279.02614279474244     
 soft         electrons   0.0000000000000000     
 augmentation electrons   279.02614279474244     
 soft         electrons   0.0000000000000000     
 augmentation electrons   279.02614279474244     
 soft         electrons   0.0000000000000000     
 augmentation electrons   279.02614279474244     
 soft         electrons   0.0000000000000000     
 augmentation electrons   279.02614279474244     
 soft         electrons   0.0000000000000000     
 augmentation electrons   279.02614279474244     
 soft         electrons   0.0000000000000000     
 augmentation electrons   279.02614279474244     
 soft         electrons   0.0000000000000000     
 augmentation electrons   279.02614279474244     
 soft         electrons   0.0000000000000000     
 augmentation electrons   279.02614279474244     
 soft         electrons   0.0000000000000000     
 augmentation electrons   279.02614279474244     
 soft         electrons   0.0000000000000000     
 augmentation electrons   279.02614279474244     
 soft         electrons   0.0000000000000000     
 augmentation electrons   279.02614279474244     
 soft         electrons   0.0000000000000000     
 augmentation electrons   279.02614279474244     
 soft         electrons   0.0000000000000000     
 augmentation electrons   279.02614279474244     
 soft         electrons   0.0000000000000000     
 augmentation electrons   279.02614279474244     
 soft         electrons   0.0000000000000000     
 augmentation electrons   279.02614279474244     
 soft         electrons   0.0000000000000000     
 augmentation electrons   279.02614279474244     
 soft         electrons   0.0000000000000000     
 augmentation electrons   279.02614279474244     
 soft         electrons   0.0000000000000000     
 augmentation electrons   279.02614279474244     
 soft         electrons   0.0000000000000000     
 augmentation electrons   279.02614279474244     
 soft         electrons   0.0000000000000000     
 augmentation electrons   279.02614279474244     
 soft         electrons   0.0000000000000000     
 augmentation electrons   279.02614279474244     
 soft         electrons   0.0000000000000000     
 augmentation electrons   279.02614279474244     
 soft         electrons   0.0000000000000000     
 augmentation electrons   279.02614279474244     
 soft         electrons   0.0000000000000000     
 augmentation electrons   279.02614279474244     
 soft         electrons   0.0000000000000000     
 total        electrons   279.02614279474244     
 total        electrons   279.02614279474244     
 total        electrons   279.02614279474244     
 total        electrons   279.02614279474244     
 total        electrons   279.02614279474244     
 total        electrons   279.02614279474244     
 total        electrons   279.02614279474244     
 total        electrons   279.02614279474244     
 total        electrons   279.02614279474244     
 total        electrons   279.02614279474244     
 total        electrons   279.02614279474244     
 total        electrons   279.02614279474244     
 total        electrons   279.02614279474244     
 total        electrons   279.02614279474244     
 total        electrons   279.02614279474244     
 total        electrons   279.02614279474244     
 total        electrons   279.02614279474244     
 total        electrons   279.02614279474244     
 total        electrons   279.02614279474244     
 total        electrons   279.02614279474244     
 total        electrons   279.02614279474244     
 total        electrons   279.02614279474244     
 total        electrons   279.02614279474244     
 total        electrons   279.02614279474244     
 total        electrons   279.02614279474244     
 total        electrons   279.02614279474244     
 total        electrons   279.02614279474244     
 total        electrons   279.02614279474244     
 total        electrons   279.02614279474244     
 total        electrons   279.02614279474244     
 total        electrons   279.02614279474244     
 total        electrons   279.02614279474244     
 total        electrons   279.02614279474244     
 total        electrons   279.02614279474244     
 total        electrons   279.02614279474244     
 total        electrons   279.02614279474244     
 total        electrons   279.02614279474244     
 total        electrons   279.02614279474244     
 total        electrons   279.02614279474244     
 total        electrons   279.02614279474244     
 total        electrons   279.02614279474244     
 total        electrons   279.02614279474244     
 total        electrons   279.02614279474244     
 total        electrons   279.02614279474244     
 total        electrons   279.02614279474244     
 total        electrons   279.02614279474244     
 total        electrons   279.02614279474244     
 total        electrons   279.02614279474244     
 total        electrons   279.02614279474244     
 total        electrons   279.02614279474244     
 total        electrons   279.02614279474244     
 total        electrons   279.02614279474244     
 total        electrons   279.02614279474244     
 total        electrons   279.02614279474244     
 total        electrons   279.02614279474244     
 total        electrons   279.02614279474244     
 total        electrons   279.02614279474244     
 total        electrons   279.02614279474244     
 total        electrons   279.02614279474244     
 total        electrons   279.02614279474244     
 total        electrons   279.02614279474244     
 total        electrons   279.02614279474244     
 total        electrons   279.02614279474244     
 total        electrons   279.02614279474244     
 total        electrons   279.02614279474244     
 total        electrons   279.02614279474244     
 total        electrons   279.02614279474244     
 total        electrons   279.02614279474244     
 total        electrons   279.02614279474244     
 total        electrons   279.02614279474244     
 total        electrons   279.02614279474244     
 total        electrons   279.02614279474244     
 augmentation electrons   864.17172981569820     
 soft         electrons   0.0000000000000000     
 total        electrons   864.17172981569820     
 augmentation electrons   864.17172981569820     
 soft         electrons   0.0000000000000000     
 total        electrons   864.17172981569820     
 augmentation electrons   864.17172981569820     
 soft         electrons   0.0000000000000000     
 total        electrons   864.17172981569820     
 augmentation electrons   864.17172981569820     
 soft         electrons   0.0000000000000000     
 total        electrons   864.17172981569820     
 augmentation electrons   864.17172981569820     
 soft         electrons   0.0000000000000000     
 total        electrons   864.17172981569820     
 augmentation electrons   864.17172981569820     
 soft         electrons   0.0000000000000000     
 total        electrons   864.17172981569820     
 augmentation electrons   864.17172981569820     
 soft         electrons   0.0000000000000000     
 total        electrons   864.17172981569820     
 augmentation electrons   864.17172981569820     
 soft         electrons   0.0000000000000000     
 total        electrons   864.17172981569820     
 augmentation electrons   864.17172981569820     
 soft         electrons   0.0000000000000000     
 total        electrons   864.17172981569820     
 augmentation electrons   864.17172981569820     
 soft         electrons   0.0000000000000000     
 total        electrons   864.17172981569820     
 augmentation electrons   864.17172981569820     
 soft         electrons   0.0000000000000000     
 total        electrons   864.17172981569820     
 augmentation electrons   864.17172981569820     
 soft         electrons   0.0000000000000000     
 total        electrons   864.17172981569820     
 augmentation electrons   864.17172981569820     
 soft         electrons   0.0000000000000000     
 total        electrons   864.17172981569820     
 augmentation electrons   864.17172981569820     
 soft         electrons   0.0000000000000000     
 total        electrons   864.17172981569820     
 augmentation electrons   864.17172981569820     
 soft         electrons   0.0000000000000000     
 total        electrons   864.17172981569820     
 augmentation electrons   864.17172981569820     
 soft         electrons   0.0000000000000000     
 total        electrons   864.17172981569820     
 augmentation electrons   864.17172981569820     
 soft         electrons   0.0000000000000000     
 total        electrons   864.17172981569820     
 augmentation electrons   864.17172981569820     
 soft         electrons   0.0000000000000000     
 total        electrons   864.17172981569820     
 augmentation electrons   864.17172981569820     
 soft         electrons   0.0000000000000000     
 total        electrons   864.17172981569820     
 augmentation electrons   864.17172981569820     
 soft         electrons   0.0000000000000000     
 total        electrons   864.17172981569820     
 augmentation electrons   864.17172981569820     
 soft         electrons   0.0000000000000000     
 total        electrons   864.17172981569820     
 augmentation electrons   864.17172981569820     
 soft         electrons   0.0000000000000000     
 total        electrons   864.17172981569820     
 augmentation electrons   864.17172981569820     
 soft         electrons   0.0000000000000000     
 total        electrons   864.17172981569820     
 augmentation electrons   864.17172981569820     
 soft         electrons   0.0000000000000000     
 total        electrons   864.17172981569820     
 augmentation electrons   864.17172981569820     
 soft         electrons   0.0000000000000000     
 total        electrons   864.17172981569820     
 augmentation electrons   864.17172981569820     
 soft         electrons   0.0000000000000000     
 total        electrons   864.17172981569820     
 augmentation electrons   864.17172981569820     
 soft         electrons   0.0000000000000000     
 total        electrons   864.17172981569820     
 augmentation electrons   864.17172981569820     
 soft         electrons   0.0000000000000000     
 total        electrons   864.17172981569820     
 augmentation electrons   864.17172981569820     
 soft         electrons   0.0000000000000000     
 total        electrons   864.17172981569820     
 augmentation electrons   864.17172981569820     
 soft         electrons   0.0000000000000000     
 total        electrons   864.17172981569820     
 augmentation electrons   864.17172981569820     
 soft         electrons   0.0000000000000000     
 total        electrons   864.17172981569820     
 augmentation electrons   864.17172981569820     
 soft         electrons   0.0000000000000000     
 total        electrons   864.17172981569820     
 augmentation electrons   864.17172981569820     
 soft         electrons   0.0000000000000000     
 total        electrons   864.17172981569820     
 augmentation electrons   864.17172981569820     
 soft         electrons   0.0000000000000000     
 total        electrons   864.17172981569820     
 augmentation electrons   864.17172981569820     
 soft         electrons   0.0000000000000000     
 total        electrons   864.17172981569820     
 augmentation electrons   864.17172981569820     
 soft         electrons   0.0000000000000000     
 total        electrons   864.17172981569820     
 augmentation electrons   864.17172981569820     
 soft         electrons   0.0000000000000000     
 total        electrons   864.17172981569820     
 augmentation electrons   864.17172981569820     
 soft         electrons   0.0000000000000000     
 total        electrons   864.17172981569820     
 augmentation electrons   864.17172981569820     
 soft         electrons   0.0000000000000000     
 total        electrons   864.17172981569820     
 augmentation electrons   864.17172981569820     
 soft         electrons   0.0000000000000000     
 total        electrons   864.17172981569820     
 augmentation electrons   864.17172981569820     
 soft         electrons   0.0000000000000000     
 total        electrons   864.17172981569820     
 augmentation electrons   864.17172981569820     
 soft         electrons   0.0000000000000000     
 total        electrons   864.17172981569820     
 augmentation electrons   864.17172981569820     
 soft         electrons   0.0000000000000000     
 total        electrons   864.17172981569820     
 augmentation electrons   864.17172981569820     
 soft         electrons   0.0000000000000000     
 total        electrons   864.17172981569820     
 augmentation electrons   864.17172981569820     
 soft         electrons   0.0000000000000000     
 total        electrons   864.17172981569820     
 augmentation electrons   864.17172981569820     
 soft         electrons   0.0000000000000000     
 total        electrons   864.17172981569820     
 augmentation electrons   864.17172981569820     
 soft         electrons   0.0000000000000000     
 total        electrons   864.17172981569820     
 augmentation electrons   864.17172981569820     
 soft         electrons   0.0000000000000000     
 total        electrons   864.17172981569820     
 augmentation electrons   864.17172981569820     
 soft         electrons   0.0000000000000000     
 total        electrons   864.17172981569820     
 augmentation electrons   864.17172981569820     
 soft         electrons   0.0000000000000000     
 total        electrons   864.17172981569820     
 augmentation electrons   864.17172981569820     
 soft         electrons   0.0000000000000000     
 total        electrons   864.17172981569820     
 augmentation electrons   864.17172981569820     
 soft         electrons   0.0000000000000000     
 total        electrons   864.17172981569820     
 augmentation electrons   864.17172981569820     
 soft         electrons   0.0000000000000000     
 total        electrons   864.17172981569820     
 augmentation electrons   864.17172981569820     
 soft         electrons   0.0000000000000000     
 total        electrons   864.17172981569820     
 augmentation electrons   864.17172981569820     
 soft         electrons   0.0000000000000000     
 total        electrons   864.17172981569820     
 augmentation electrons   864.17172981569820     
 soft         electrons   0.0000000000000000     
 total        electrons   864.17172981569820     
 augmentation electrons   864.17172981569820     
 soft         electrons   0.0000000000000000     
 total        electrons   864.17172981569820     
 augmentation electrons   864.17172981569820     
 soft         electrons   0.0000000000000000     
 total        electrons   864.17172981569820     
 augmentation electrons   864.17172981569820     
 soft         electrons   0.0000000000000000     
 total        electrons   864.17172981569820     
 augmentation electrons   864.17172981569820     
 soft         electrons   0.0000000000000000     
 total        electrons   864.17172981569820     
 augmentation electrons   864.17172981569820     
 soft         electrons   0.0000000000000000     
 total        electrons   864.17172981569820     
 augmentation electrons   864.17172981569820     
 soft         electrons   0.0000000000000000     
 total        electrons   864.17172981569820     
 augmentation electrons   864.17172981569820     
 soft         electrons   0.0000000000000000     
 total        electrons   864.17172981569820     
 augmentation electrons   864.17172981569820     
 soft         electrons   0.0000000000000000     
 total        electrons   864.17172981569820     
 augmentation electrons   864.17172981569820     
 soft         electrons   0.0000000000000000     
 total        electrons   864.17172981569820     
 augmentation electrons   864.17172981569820     
 soft         electrons   0.0000000000000000     
 total        electrons   864.17172981569820     
 augmentation electrons   864.17172981569820     
 soft         electrons   0.0000000000000000     
 total        electrons   864.17172981569820     
 augmentation electrons   864.17172981569820     
 soft         electrons   0.0000000000000000     
 total        electrons   864.17172981569820     
 augmentation electrons   864.17172981569820     
 soft         electrons   0.0000000000000000     
 total        electrons   864.17172981569820     
 augmentation electrons   864.17172981569820     
 soft         electrons   0.0000000000000000     
 total        electrons   864.17172981569820     
 augmentation electrons   864.17172981569820     
 soft         electrons   0.0000000000000000     
 total        electrons   864.17172981569820     
 augmentation electrons   864.17172981569820     
 soft         electrons   0.0000000000000000     
 total        electrons   864.17172981569820     
 entering main loop
       N       E                     dE             d eps       ncg     rms          rms(c)
DAV:   1     0.307376302705E+04    0.30738E+04   -0.95025E+04  8464   0.127E+03
DAV:   2     0.817001348195E+02   -0.29921E+04   -0.27548E+04  9040   0.332E+02
DAV:   3    -0.611232545638E+03   -0.69293E+03   -0.66466E+03 11816   0.193E+02
DAV:   4    -0.678930890626E+03   -0.67698E+02   -0.64642E+02 13920   0.667E+01
DAV:   5    -0.682696664173E+03   -0.37658E+01   -0.35856E+01 14168   0.163E+01    0.142E+02
RMM:   6    -0.625744410281E+03    0.56952E+02   -0.13895E+03 11503   0.112E+02    0.763E+01
RMM:   7    -0.677606229644E+03   -0.51862E+02   -0.68436E+02 10010   0.977E+01    0.563E+01
RMM:   8    -0.605855599730E+03    0.71751E+02   -0.13200E+02 10032   0.391E+01    0.355E+01
RMM:   9    -0.576276826791E+03    0.29579E+02   -0.51778E+01  9373   0.243E+01    0.262E+01
RMM:  10    -0.563594082229E+03    0.12683E+02   -0.27765E+01 11241   0.136E+01    0.187E+01
RMM:  11    -0.562748530250E+03    0.84555E+00   -0.73638E+00 11421   0.664E+00    0.161E+01
RMM:  12    -0.562682044270E+03    0.66486E-01   -0.20866E+00 12907   0.245E+00    0.146E+01
RMM:  13    -0.562302160210E+03    0.37988E+00   -0.12025E+00 10930   0.333E+00    0.124E+01
RMM:  14    -0.561912487555E+03    0.38967E+00   -0.30564E+00 10760   0.531E+00    0.887E+00
RMM:  15    -0.561326350014E+03    0.58614E+00   -0.23637E+00  9890   0.491E+00    0.402E+00
RMM:  16    -0.561303155410E+03    0.23195E-01   -0.11778E+00 11388   0.264E+00    0.341E+00
RMM:  17    -0.561213991264E+03    0.89164E-01   -0.47895E-01 12020   0.159E+00    0.217E+00
RMM:  18    -0.561199046263E+03    0.14945E-01   -0.27471E-01 11794   0.128E+00    0.181E+00
RMM:  19    -0.561174528273E+03    0.24518E-01   -0.11820E-01 10765   0.921E-01    0.102E+00
RMM:  20    -0.561162183356E+03    0.12345E-01   -0.97068E-02 12422   0.647E-01    0.803E-01
RMM:  21    -0.561160143018E+03    0.20403E-02   -0.41247E-02 12181   0.471E-01    0.972E-01
RMM:  22    -0.561153025122E+03    0.71179E-02   -0.16875E-02 11693   0.360E-01    0.748E-01
RMM:  23    -0.561151240598E+03    0.17845E-02   -0.11524E-02 11797   0.257E-01    0.424E-01
RMM:  24    -0.561149939138E+03    0.13015E-02   -0.54010E-03 11555   0.205E-01    0.215E-01
RMM:  25    -0.561149080604E+03    0.85853E-03   -0.49910E-03 13152   0.146E-01    0.156E-01
RMM:  26    -0.561148383235E+03    0.69737E-03   -0.19624E-03 13106   0.809E-02    0.134E-01
RMM:  27    -0.561148324530E+03    0.58705E-04   -0.14382E-03 12414   0.853E-02    0.988E-02
RMM:  28    -0.561148567141E+03   -0.24261E-03   -0.71310E-04 12080   0.661E-02    0.751E-02
RMM:  29    -0.561149357757E+03   -0.79062E-03   -0.58550E-04 11331   0.521E-02    0.508E-02
RMM:  30    -0.561149731583E+03   -0.37383E-03   -0.32045E-04 10833   0.400E-02    0.496E-02
RMM:  31    -0.561149858788E+03   -0.12721E-03   -0.16761E-04 11515   0.268E-02    0.379E-02
RMM:  32    -0.561150022999E+03   -0.16421E-03   -0.88219E-05 11057   0.224E-02    0.294E-02
RMM:  33    -0.561150114485E+03   -0.91485E-04   -0.51998E-05 11781   0.120E-02    0.242E-02
RMM:  34    -0.561150161020E+03   -0.46535E-04   -0.23182E-05 10621   0.118E-02    0.134E-02
RMM:  35    -0.561150246070E+03   -0.85050E-04   -0.43124E-05 12194   0.130E-02    0.143E-02
RMM:  36    -0.561150331275E+03   -0.85205E-04   -0.11106E-05  8138   0.751E-03    0.117E-02
RMM:  37    -0.561150520304E+03   -0.18903E-03   -0.15506E-05  8883   0.628E-03    0.577E-03
RMM:  38    -0.561150626884E+03   -0.10658E-03   -0.10133E-05  8093   0.589E-03    0.564E-03
RMM:  39    -0.561150671077E+03   -0.44192E-04   -0.35148E-06  7521   0.412E-03    0.428E-03
RMM:  40    -0.561150716880E+03   -0.45804E-04   -0.33142E-06  7419   0.327E-03    0.222E-03
RMM:  41    -0.561150742971E+03   -0.26091E-04   -0.18890E-06  6911   0.273E-03    0.145E-03
RMM:  42    -0.561150765904E+03   -0.22933E-04   -0.18956E-06  6838   0.237E-03    0.136E-03
RMM:  43    -0.561150775886E+03   -0.99816E-05   -0.86048E-07  6389   0.222E-03    0.981E-04
RMM:  44    -0.561150784259E+03   -0.83729E-05   -0.93764E-07  6156   0.175E-03    0.643E-04
RMM:  45    -0.561150787922E+03   -0.36626E-05   -0.48332E-07  5575   0.148E-03    0.794E-04
RMM:  46    -0.561150788338E+03   -0.41632E-06   -0.19145E-07  4371   0.111E-03
   1 F= -.56115079E+03 E0= -.56115362E+03  d E =0.849793E-02
 augmentation electrons   35.672613006846682     
 soft         electrons   243.42315782123904     
 augmentation electrons   35.672613006846682     
 soft         electrons   243.42315782123904     
 augmentation electrons   35.672613006846682     
 soft         electrons   243.42315782123904     
 augmentation electrons   35.672613006846682     
 soft         electrons   243.42315782123904     
 augmentation electrons   35.672613006846682     
 soft         electrons   243.42315782123904     
 augmentation electrons   35.672613006846682     
 soft         electrons   243.42315782123904     
 augmentation electrons   35.672613006846682     
 soft         electrons   243.42315782123904     
 augmentation electrons   35.672613006846682     
 soft         electrons   243.42315782123904     
 augmentation electrons   35.672613006846682     
 soft         electrons   243.42315782123904     
 augmentation electrons   35.672613006846682     
 soft         electrons   243.42315782123904     
 augmentation electrons   35.672613006846682     
 soft         electrons   243.42315782123904     
 augmentation electrons   35.672613006846682     
 soft         electrons   243.42315782123904     
 augmentation electrons   35.672613006846682     
 soft         electrons   243.42315782123904     
 augmentation electrons   35.672613006846682     
 soft         electrons   243.42315782123904     
 augmentation electrons   35.672613006846682     
 soft         electrons   243.42315782123904     
 augmentation electrons   35.672613006846682     
 soft         electrons   243.42315782123904     
 augmentation electrons   35.672613006846682     
 soft         electrons   243.42315782123904     
 augmentation electrons   35.672613006846682     
 soft         electrons   243.42315782123904     
 augmentation electrons   35.672613006846682     
 soft         electrons   243.42315782123904     
 augmentation electrons   35.672613006846682     
 soft         electrons   243.42315782123904     
 augmentation electrons   35.672613006846682     
 soft         electrons   243.42315782123904     
 augmentation electrons   35.672613006846682     
 soft         electrons   243.42315782123904     
 augmentation electrons   35.672613006846682     
 soft         electrons   243.42315782123904     
 augmentation electrons   35.672613006846682     
 soft         electrons   243.42315782123904     
 augmentation electrons   35.672613006846682     
 soft         electrons   243.42315782123904     
 augmentation electrons   35.672613006846682     
 soft         electrons   243.42315782123904     
 augmentation electrons   35.672613006846682     
 soft         electrons   243.42315782123904     
 augmentation electrons   35.672613006846682     
 soft         electrons   243.42315782123904     
 augmentation electrons   35.672613006846682     
 soft         electrons   243.42315782123904     
 augmentation electrons   35.672613006846682     
 soft         electrons   243.42315782123904     
 augmentation electrons   35.672613006846682     
 soft         electrons   243.42315782123904     
 augmentation electrons   35.672613006846682     
 soft         electrons   243.42315782123904     
 augmentation electrons   35.672613006846682     
 soft         electrons   243.42315782123904     
 augmentation electrons   35.672613006846682     
 soft         electrons   243.42315782123904     
 augmentation electrons   35.672613006846682     
 soft         electrons   243.42315782123904     
 augmentation electrons   35.672613006846682     
 soft         electrons   243.42315782123904     
 augmentation electrons   35.672613006846682     
 soft         electrons   243.42315782123904     
 augmentation electrons   35.672613006846682     
 soft         electrons   243.42315782123904     
 augmentation electrons   35.672613006846682     
 soft         electrons   243.42315782123904     
 augmentation electrons   35.672613006846682     
 soft         electrons   243.42315782123904     
 augmentation electrons   35.672613006846682     
 soft         electrons   243.42315782123904     
 augmentation electrons   35.672613006846682     
 soft         electrons   243.42315782123904     
 augmentation electrons   35.672613006846682     
 soft         electrons   243.42315782123904     
 augmentation electrons   35.672613006846682     
 soft         electrons   243.42315782123904     
 augmentation electrons   35.672613006846682     
 soft         electrons   243.42315782123904     
 augmentation electrons   35.672613006846682     
 soft         electrons   243.42315782123904     
 augmentation electrons   35.672613006846682     
 soft         electrons   243.42315782123904     
 augmentation electrons   35.672613006846682     
 soft         electrons   243.42315782123904     
 augmentation electrons   35.672613006846682     
 soft         electrons   243.42315782123904     
 augmentation electrons   35.672613006846682     
 soft         electrons   243.42315782123904     
 augmentation electrons   35.672613006846682     
 soft         electrons   243.42315782123904     
 augmentation electrons   35.672613006846682     
 soft         electrons   243.42315782123904     
 augmentation electrons   35.672613006846682     
 soft         electrons   243.42315782123904     
 augmentation electrons   35.672613006846682     
 soft         electrons   243.42315782123904     
 augmentation electrons   35.672613006846682     
 soft         electrons   243.42315782123904     
 augmentation electrons   35.672613006846682     
 soft         electrons   243.42315782123904     
 augmentation electrons   35.672613006846682     
 soft         electrons   243.42315782123904     
 augmentation electrons   35.672613006846682     
 soft         electrons   243.42315782123904     
 augmentation electrons   35.672613006846682     
 soft         electrons   243.42315782123904     
 augmentation electrons   35.672613006846682     
 soft         electrons   243.42315782123904     
 augmentation electrons   35.672613006846682     
 soft         electrons   243.42315782123904     
 augmentation electrons   35.672613006846682     
 soft         electrons   243.42315782123904     
 augmentation electrons   35.672613006846682     
 soft         electrons   243.42315782123904     
 augmentation electrons   35.672613006846682     
 soft         electrons   243.42315782123904     
 augmentation electrons   35.672613006846682     
 soft         electrons   243.42315782123904     
 augmentation electrons   35.672613006846682     
 soft         electrons   243.42315782123904     
 augmentation electrons   35.672613006846682     
 soft         electrons   243.42315782123904     
 augmentation electrons   35.672613006846682     
 soft         electrons   243.42315782123904     
 augmentation electrons   35.672613006846682     
 soft         electrons   243.42315782123904     
 augmentation electrons   35.672613006846682     
 soft         electrons   243.42315782123904     
 augmentation electrons   35.672613006846682     
 soft         electrons   243.42315782123904     
 augmentation electrons   35.672613006846682     
 soft         electrons   243.42315782123904     
 total        electrons   279.09577082808573     
 total        electrons   279.09577082808573     
 total        electrons   279.09577082808573     
 total        electrons   279.09577082808573     
 total        electrons   279.09577082808573     
 total        electrons   279.09577082808573     
 total        electrons   279.09577082808573     
 total        electrons   279.09577082808573     
 total        electrons   279.09577082808573     
 total        electrons   279.09577082808573     
 total        electrons   279.09577082808573     
 total        electrons   279.09577082808573     
 total        electrons   279.09577082808573     
 total        electrons   279.09577082808573     
 total        electrons   279.09577082808573     
 total        electrons   279.09577082808573     
 total        electrons   279.09577082808573     
 total        electrons   279.09577082808573     
 total        electrons   279.09577082808573     
 total        electrons   279.09577082808573     
 total        electrons   279.09577082808573     
 total        electrons   279.09577082808573     
 total        electrons   279.09577082808573     
 total        electrons   279.09577082808573     
 total        electrons   279.09577082808573     
 total        electrons   279.09577082808573     
 total        electrons   279.09577082808573     
 total        electrons   279.09577082808573     
 total        electrons   279.09577082808573     
 total        electrons   279.09577082808573     
 total        electrons   279.09577082808573     
 total        electrons   279.09577082808573     
 total        electrons   279.09577082808573     
 total        electrons   279.09577082808573     
 total        electrons   279.09577082808573     
 total        electrons   279.09577082808573     
 total        electrons   279.09577082808573     
 total        electrons   279.09577082808573     
 total        electrons   279.09577082808573     
 total        electrons   279.09577082808573     
 total        electrons   279.09577082808573     
 total        electrons   279.09577082808573     
 total        electrons   279.09577082808573     
 total        electrons   279.09577082808573     
 total        electrons   279.09577082808573     
 total        electrons   279.09577082808573     
 total        electrons   279.09577082808573     
 total        electrons   279.09577082808573     
 total        electrons   279.09577082808573     
 total        electrons   279.09577082808573     
 total        electrons   279.09577082808573     
 total        electrons   279.09577082808573     
 total        electrons   279.09577082808573     
 total        electrons   279.09577082808573     
 total        electrons   279.09577082808573     
 total        electrons   279.09577082808573     
 total        electrons   279.09577082808573     
 total        electrons   279.09577082808573     
 total        electrons   279.09577082808573     
 total        electrons   279.09577082808573     
 total        electrons   279.09577082808573     
 total        electrons   279.09577082808573     
 total        electrons   279.09577082808573     
 total        electrons   279.09577082808573     
 total        electrons   279.09577082808573     
 total        electrons   279.09577082808573     
 total        electrons   279.09577082808573     
 total        electrons   279.09577082808573     
 total        electrons   279.09577082808573     
 total        electrons   279.09577082808573     
 total        electrons   279.09577082808573     
 total        electrons   279.09577082808573     
Note: The following floating-point exceptions are signalling: IEEE_OVERFLOW_FLAG
Note: The following floating-point exceptions are signalling: IEEE_OVERFLOW_FLAG
Note: The following floating-point exceptions are signalling: IEEE_OVERFLOW_FLAG
Note: The following floating-point exceptions are signalling: IEEE_OVERFLOW_FLAG
Note: The following floating-point exceptions are signalling: IEEE_OVERFLOW_FLAG
Note: The following floating-point exceptions are signalling: IEEE_OVERFLOW_FLAG
Note: The following floating-point exceptions are signalling: IEEE_OVERFLOW_FLAG
Note: The following floating-point exceptions are signalling: IEEE_OVERFLOW_FLAG
Note: The following floating-point exceptions are signalling: IEEE_OVERFLOW_FLAG
Note: The following floating-point exceptions are signalling: IEEE_OVERFLOW_FLAG
Note: The following floating-point exceptions are signalling: IEEE_OVERFLOW_FLAG
Note: The following floating-point exceptions are signalling: IEEE_OVERFLOW_FLAG
Note: The following floating-point exceptions are signalling: IEEE_OVERFLOW_FLAG
Note: The following floating-point exceptions are signalling: IEEE_OVERFLOW_FLAG
Note: The following floating-point exceptions are signalling: IEEE_OVERFLOW_FLAG
Note: The following floating-point exceptions are signalling: IEEE_OVERFLOW_FLAG
Note: The following floating-point exceptions are signalling: IEEE_OVERFLOW_FLAG
Note: The following floating-point exceptions are signalling: IEEE_OVERFLOW_FLAG
Note: The following floating-point exceptions are signalling: IEEE_OVERFLOW_FLAG
Note: The following floating-point exceptions are signalling: IEEE_OVERFLOW_FLAG
Note: The following floating-point exceptions are signalling: IEEE_OVERFLOW_FLAG
Note: The following floating-point exceptions are signalling: IEEE_OVERFLOW_FLAG
Note: The following floating-point exceptions are signalling: IEEE_OVERFLOW_FLAG
Note: The following floating-point exceptions are signalling: IEEE_OVERFLOW_FLAG
Note: The following floating-point exceptions are signalling: IEEE_OVERFLOW_FLAG
Note: The following floating-point exceptions are signalling: IEEE_OVERFLOW_FLAG
Note: The following floating-point exceptions are signalling: IEEE_OVERFLOW_FLAG
Note: The following floating-point exceptions are signalling: IEEE_OVERFLOW_FLAG
Note: The following floating-point exceptions are signalling: IEEE_OVERFLOW_FLAG
Note: The following floating-point exceptions are signalling: IEEE_OVERFLOW_FLAG
Note: The following floating-point exceptions are signalling: IEEE_OVERFLOW_FLAG
Note: The following floating-point exceptions are signalling: IEEE_OVERFLOW_FLAG
Note: The following floating-point exceptions are signalling: IEEE_OVERFLOW_FLAG
Note: The following floating-point exceptions are signalling: IEEE_OVERFLOW_FLAG
Note: The following floating-point exceptions are signalling: IEEE_OVERFLOW_FLAG
Note: The following floating-point exceptions are signalling: IEEE_OVERFLOW_FLAG
Note: The following floating-point exceptions are signalling: IEEE_OVERFLOW_FLAG
Note: The following floating-point exceptions are signalling: IEEE_OVERFLOW_FLAG
Note: The following floating-point exceptions are signalling: IEEE_OVERFLOW_FLAG
Note: The following floating-point exceptions are signalling: IEEE_OVERFLOW_FLAG
Note: The following floating-point exceptions are signalling: IEEE_OVERFLOW_FLAG
Note: The following floating-point exceptions are signalling: IEEE_OVERFLOW_FLAG
Note: The following floating-point exceptions are signalling: IEEE_OVERFLOW_FLAG
Note: The following floating-point exceptions are signalling: IEEE_OVERFLOW_FLAG
Note: The following floating-point exceptions are signalling: IEEE_OVERFLOW_FLAG
Note: The following floating-point exceptions are signalling: IEEE_OVERFLOW_FLAG
Note: The following floating-point exceptions are signalling: IEEE_OVERFLOW_FLAG
Note: The following floating-point exceptions are signalling: IEEE_OVERFLOW_FLAG
Note: The following floating-point exceptions are signalling: IEEE_OVERFLOW_FLAG
Note: The following floating-point exceptions are signalling: IEEE_OVERFLOW_FLAG
Note: The following floating-point exceptions are signalling: IEEE_OVERFLOW_FLAG
Note: The following floating-point exceptions are signalling: IEEE_OVERFLOW_FLAG
Note: The following floating-point exceptions are signalling: IEEE_OVERFLOW_FLAG
Note: The following floating-point exceptions are signalling: IEEE_OVERFLOW_FLAG
Note: The following floating-point exceptions are signalling: IEEE_OVERFLOW_FLAG
Note: The following floating-point exceptions are signalling: IEEE_OVERFLOW_FLAG
Note: The following floating-point exceptions are signalling: IEEE_OVERFLOW_FLAG
Note: The following floating-point exceptions are signalling: IEEE_OVERFLOW_FLAG
Note: The following floating-point exceptions are signalling: IEEE_OVERFLOW_FLAG
Note: The following floating-point exceptions are signalling: IEEE_OVERFLOW_FLAG
Note: The following floating-point exceptions are signalling: IEEE_OVERFLOW_FLAG
Note: The following floating-point exceptions are signalling: IEEE_OVERFLOW_FLAG
Note: The following floating-point exceptions are signalling: IEEE_OVERFLOW_FLAG
Note: The following floating-point exceptions are signalling: IEEE_OVERFLOW_FLAG
Note: The following floating-point exceptions are signalling: IEEE_OVERFLOW_FLAG
Note: The following floating-point exceptions are signalling: IEEE_OVERFLOW_FLAG
Note: The following floating-point exceptions are signalling: IEEE_OVERFLOW_FLAG
Note: The following floating-point exceptions are signalling: IEEE_OVERFLOW_FLAG
Note: The following floating-point exceptions are signalling: IEEE_OVERFLOW_FLAG
Note: The following floating-point exceptions are signalling: IEEE_OVERFLOW_FLAG
Note: The following floating-point exceptions are signalling: IEEE_OVERFLOW_FLAG
Note: The following floating-point exceptions are signalling: IEEE_OVERFLOW_FLAG
