   74   74    1    1
  0.2087222E+02  0.1036705E-08  0.2428040E-08  0.6136055E-09  0.5000000E-15
   1.0000000000000000E-004
  CAR 
 Name                                    
    278     23    184

  0.3742002E-15  0.1262379E-14  0.3742002E-15  0.2222222E-01
    1      -13.988389   1.000000
    2      -12.818350   1.000000
    3      -12.798563   1.000000
    4      -12.764367   1.000000
    5      -11.864616   1.000000
    6      -11.678277   1.000000
    7      -11.630717   1.000000
    8      -11.442982   1.000000
    9      -11.434729   1.000000
   10      -11.244998   1.000000
   11      -11.208737   1.000000
   12      -10.970346   1.000000
   13      -10.931865   1.000000
   14      -10.460534   1.000000
   15      -10.410470   1.000000
   16      -10.261768   1.000000
   17      -10.130208   1.000000
   18      -10.027706   1.000000
   19       -9.763066   1.000000
   20       -9.567385   1.000000
   21       -9.483544   1.000000
   22       -9.474017   1.000000
   23       -9.370779   1.000000
   24       -9.313466   1.000000
   25       -8.821569   1.000000
   26       -8.787262   1.000000
   27       -8.591255   1.000000
   28       -8.403020   1.000000
   29       -8.292516   1.000000
   30       -8.101328   1.000000
   31       -8.087700   1.000000
   32       -7.769795   1.000000
   33       -7.728885   1.000000
   34       -7.336783   1.000000
   35       -7.248475   1.000000
   36       -7.162584   1.000000
   37       -6.978201   1.000000
   38       -6.831949   1.000000
   39       -6.780623   1.000000
   40       -6.735975   1.000000
   41       -6.654191   1.000000
   42       -6.648160   1.000000
   43       -6.629205   1.000000
   44       -6.436310   1.000000
   45       -6.293865   1.000000
   46       -6.204933   1.000000
   47       -6.164827   1.000000
   48       -6.069347   1.000000
   49       -6.049616   1.000000
   50       -5.882198   1.000000
   51       -5.738662   1.000000
   52       -5.601638   1.000000
   53       -5.598569   1.000000
   54       -5.571983   1.000000
   55       -5.541398   1.000000
   56       -5.478657   1.000000
   57       -5.419159   1.000000
   58       -5.322787   1.000000
   59       -5.262937   1.000000
   60       -5.161865   1.000000
   61       -5.151091   1.000000
   62       -4.996839   1.000000
   63       -4.676596   1.000000
   64       -4.642451   1.000000
   65       -4.602944   1.000000
   66       -4.512559   1.000000
   67       -4.487214   1.000000
   68       -4.362344   1.000000
   69       -4.262219   1.000000
   70       -4.075695   1.000000
   71       -4.025536   1.000000
   72       -3.998094   1.000000
   73       -3.973437   1.000000
   74       -3.950710   1.000000
   75       -3.882973   1.000000
   76       -3.875792   1.000000
   77       -3.860766   1.000000
   78       -3.840787   1.000000
   79       -3.813466   1.000000
   80       -3.715580   1.000000
   81       -3.571937   1.000000
   82       -3.541883   1.000000
   83       -3.525984   1.000000
   84       -3.519656   1.000000
   85       -3.501024   1.000000
   86       -3.456752   1.000000
   87       -3.442579   1.000000
   88       -3.435689   1.000000
   89       -3.424407   1.000000
   90       -3.392234   1.000000
   91       -3.360671   1.000000
   92       -3.213835   1.000000
   93       -3.196399   1.000000
   94       -2.926048   1.000000
   95       -2.869339   1.000000
   96       -2.859872   1.000000
   97       -2.767562   1.000000
   98       -2.751892   1.000000
   99       -2.655241   1.000000
  100       -2.522935   1.000000
  101       -2.380233   1.000000
  102       -2.301295   1.000000
  103       -2.270984   1.000000
  104       -2.236538   1.000000
  105       -2.187485   1.000000
  106       -2.065408   1.000000
  107       -2.020073   1.000000
  108       -1.962298   1.000000
  109       -1.947931   1.000000
  110       -1.888322   1.000000
  111       -1.813648   1.000000
  112       -1.807850   1.000000
  113       -1.738820   1.000000
  114       -1.705235   1.000000
  115       -1.585125   1.000000
  116       -1.538111   1.000000
  117       -1.513649   1.000000
  118       -1.511171   1.000000
  119       -1.398147   1.000000
  120       -1.311481   1.000000
  121       -1.253439   1.000000
  122       -0.942200   1.000000
  123       -0.760272   1.000000
  124       -0.758841   1.000000
  125       -0.725167   1.000000
  126       -0.541539   1.000000
  127       -0.384291   1.000000
  128       -0.372295   1.000000
  129       -0.289118   1.000000
  130       -0.272674   1.000000
  131       -0.012824   1.000000
  132        0.011370   1.000000
  133        0.152206   1.000563
  134        0.313689   1.028812
  135        0.326650   1.013189
  136        0.349470   0.953573
  137        0.403405   0.619690
  138        0.417637   0.500611
  139        0.525908  -0.031677
  140        0.533899  -0.034796
  141        0.614714  -0.008796
  142        0.642465  -0.003317
  143        0.652976  -0.002180
  144        0.662782  -0.001439
  145        0.670582  -0.001017
  146        0.671547  -0.000974
  147        0.718908  -0.000087
  148        0.872846  -0.000000
  149        0.889525  -0.000000
  150        0.899916  -0.000000
  151        1.099405  -0.000000
  152        1.130096  -0.000000
  153        1.180512  -0.000000
  154        1.213268  -0.000000
  155        1.255109  -0.000000
  156        1.276288  -0.000000
  157        1.287017  -0.000000
  158        1.388973  -0.000000
  159        1.428884  -0.000000
  160        1.433678  -0.000000
  161        1.452236  -0.000000
  162        1.478355  -0.000000
  163        1.489521  -0.000000
  164        1.497664  -0.000000
  165        1.618486  -0.000000
  166        1.680699  -0.000000
  167        1.698004  -0.000000
  168        1.715383  -0.000000
  169        1.727528  -0.000000
  170        1.744472  -0.000000
  171        1.750434  -0.000000
  172        1.772043  -0.000000
  173        1.789113  -0.000000
  174        1.815627  -0.000000
  175        1.858865  -0.000000
  176        1.868620  -0.000000
  177        1.890302  -0.000000
  178        2.446581  -0.000000
  179        2.468419  -0.000000
  180        2.485276  -0.000000
  181        2.599834  -0.000000
  182        2.658098  -0.000000
  183        2.865746  -0.000000
  184        3.984728   0.000000

  0.2000000E+00  0.1262379E-14  0.3742002E-15  0.4444444E-01
    1      -13.939047   1.000000
    2      -13.218530   1.000000
    3      -12.729573   1.000000
    4      -12.312103   1.000000
    5      -12.047231   1.000000
    6      -11.848336   1.000000
    7      -11.595191   1.000000
    8      -11.254376   1.000000
    9      -11.232286   1.000000
   10      -11.223303   1.000000
   11      -11.133656   1.000000
   12      -11.050793   1.000000
   13      -10.822520   1.000000
   14      -10.555649   1.000000
   15      -10.551580   1.000000
   16      -10.502450   1.000000
   17      -10.447609   1.000000
   18       -9.782770   1.000000
   19       -9.770348   1.000000
   20       -9.511662   1.000000
   21       -9.450161   1.000000
   22       -9.442456   1.000000
   23       -9.384497   1.000000
   24       -9.286342   1.000000
   25       -9.013101   1.000000
   26       -8.811571   1.000000
   27       -8.269721   1.000000
   28       -8.237077   1.000000
   29       -8.152355   1.000000
   30       -8.066199   1.000000
   31       -8.039331   1.000000
   32       -8.005845   1.000000
   33       -7.602649   1.000000
   34       -7.422239   1.000000
   35       -7.349328   1.000000
   36       -7.190976   1.000000
   37       -7.168426   1.000000
   38       -6.918667   1.000000
   39       -6.834593   1.000000
   40       -6.816529   1.000000
   41       -6.676977   1.000000
   42       -6.599513   1.000000
   43       -6.556669   1.000000
   44       -6.380064   1.000000
   45       -6.363489   1.000000
   46       -6.258089   1.000000
   47       -6.125547   1.000000
   48       -6.025316   1.000000
   49       -6.000736   1.000000
   50       -5.971535   1.000000
   51       -5.709965   1.000000
   52       -5.680895   1.000000
   53       -5.612954   1.000000
   54       -5.503819   1.000000
   55       -5.443565   1.000000
   56       -5.291157   1.000000
   57       -5.286714   1.000000
   58       -5.213028   1.000000
   59       -5.189705   1.000000
   60       -5.141338   1.000000
   61       -5.102852   1.000000
   62       -5.027785   1.000000
   63       -4.956236   1.000000
   64       -4.766105   1.000000
   65       -4.663805   1.000000
   66       -4.515315   1.000000
   67       -4.445628   1.000000
   68       -4.320194   1.000000
   69       -4.313511   1.000000
   70       -4.063772   1.000000
   71       -4.050144   1.000000
   72       -4.027217   1.000000
   73       -4.017362   1.000000
   74       -3.978487   1.000000
   75       -3.944119   1.000000
   76       -3.831519   1.000000
   77       -3.821588   1.000000
   78       -3.783605   1.000000
   79       -3.706595   1.000000
   80       -3.671878   1.000000
   81       -3.633900   1.000000
   82       -3.573663   1.000000
   83       -3.555131   1.000000
   84       -3.528676   1.000000
   85       -3.518361   1.000000
   86       -3.486461   1.000000
   87       -3.435183   1.000000
   88       -3.395965   1.000000
   89       -3.394855   1.000000
   90       -3.391619   1.000000
   91       -3.339926   1.000000
   92       -3.257519   1.000000
   93       -3.211524   1.000000
   94       -2.941252   1.000000
   95       -2.935882   1.000000
   96       -2.890355   1.000000
   97       -2.763313   1.000000
   98       -2.723671   1.000000
   99       -2.629611   1.000000
  100       -2.557423   1.000000
  101       -2.433555   1.000000
  102       -2.289070   1.000000
  103       -2.283445   1.000000
  104       -2.266505   1.000000
  105       -2.158362   1.000000
  106       -2.039061   1.000000
  107       -1.941131   1.000000
  108       -1.930863   1.000000
  109       -1.890557   1.000000
  110       -1.858253   1.000000
  111       -1.851295   1.000000
  112       -1.798690   1.000000
  113       -1.776765   1.000000
  114       -1.623100   1.000000
  115       -1.554366   1.000000
  116       -1.478969   1.000000
  117       -1.445620   1.000000
  118       -1.391639   1.000000
  119       -1.368353   1.000000
  120       -1.260719   1.000000
  121       -1.202288   1.000000
  122       -0.946383   1.000000
  123       -0.843009   1.000000
  124       -0.788989   1.000000
  125       -0.736558   1.000000
  126       -0.628857   1.000000
  127       -0.497067   1.000000
  128       -0.375152   1.000000
  129       -0.344248   1.000000
  130       -0.296029   1.000000
  131       -0.166170   1.000000
  132       -0.143072   1.000000
  133       -0.030024   1.000000
  134        0.176305   1.001685
  135        0.204325   1.005067
  136        0.287318   1.034593
  137        0.379132   0.801092
  138        0.446741   0.265413
  139        0.496859   0.012160
  140        0.619424  -0.007561
  141        0.662227  -0.001474
  142        0.685223  -0.000511
  143        0.690320  -0.000398
  144        0.708827  -0.000152
  145        0.743154  -0.000021
  146        0.748955  -0.000015
  147        0.788045  -0.000001
  148        0.856560  -0.000000
  149        0.860838  -0.000000
  150        0.973566  -0.000000
  151        1.142282  -0.000000
  152        1.186671  -0.000000
  153        1.211412  -0.000000
  154        1.266717  -0.000000
  155        1.312522  -0.000000
  156        1.346642  -0.000000
  157        1.372530  -0.000000
  158        1.404813  -0.000000
  159        1.416073  -0.000000
  160        1.430798  -0.000000
  161        1.499362  -0.000000
  162        1.501444  -0.000000
  163        1.517847  -0.000000
  164        1.550075  -0.000000
  165        1.601874  -0.000000
  166        1.656805  -0.000000
  167        1.679037  -0.000000
  168        1.704044  -0.000000
  169        1.710255  -0.000000
  170        1.735642  -0.000000
  171        1.750998  -0.000000
  172        1.773718  -0.000000
  173        1.831972  -0.000000
  174        1.861803  -0.000000
  175        1.924296  -0.000000
  176        1.928882  -0.000000
  177        1.955764  -0.000000
  178        2.242876  -0.000000
  179        2.399067  -0.000000
  180        2.442255  -0.000000
  181        2.493754  -0.000000
  182        2.713710  -0.000000
  183        2.760735  -0.000000
  184        3.863025   0.000000

  0.4000000E+00  0.1262379E-14  0.3742002E-15  0.4444444E-01
    1      -13.792151   1.000000
    2      -13.549842   1.000000
    3      -12.594007   1.000000
    4      -12.358299   1.000000
    5      -11.799118   1.000000
    6      -11.755873   1.000000
    7      -11.714765   1.000000
    8      -11.208334   1.000000
    9      -11.157149   1.000000
   10      -11.151035   1.000000
   11      -11.069280   1.000000
   12      -10.994773   1.000000
   13      -10.817809   1.000000
   14      -10.763881   1.000000
   15      -10.681289   1.000000
   16      -10.637457   1.000000
   17      -10.544322   1.000000
   18      -10.054757   1.000000
   19       -9.782197   1.000000
   20       -9.544095   1.000000
   21       -9.435637   1.000000
   22       -9.384246   1.000000
   23       -9.280199   1.000000
   24       -9.194766   1.000000
   25       -9.033243   1.000000
   26       -8.733414   1.000000
   27       -8.274751   1.000000
   28       -8.072190   1.000000
   29       -7.932293   1.000000
   30       -7.836481   1.000000
   31       -7.790250   1.000000
   32       -7.728167   1.000000
   33       -7.715352   1.000000
   34       -7.674402   1.000000
   35       -7.467891   1.000000
   36       -7.444844   1.000000
   37       -7.338716   1.000000
   38       -7.252617   1.000000
   39       -7.075881   1.000000
   40       -6.894625   1.000000
   41       -6.691435   1.000000
   42       -6.635986   1.000000
   43       -6.391906   1.000000
   44       -6.387836   1.000000
   45       -6.309098   1.000000
   46       -6.137807   1.000000
   47       -6.048775   1.000000
   48       -5.935014   1.000000
   49       -5.851786   1.000000
   50       -5.843168   1.000000
   51       -5.779688   1.000000
   52       -5.679075   1.000000
   53       -5.672667   1.000000
   54       -5.614588   1.000000
   55       -5.523796   1.000000
   56       -5.383912   1.000000
   57       -5.267389   1.000000
   58       -5.109833   1.000000
   59       -5.092680   1.000000
   60       -5.047803   1.000000
   61       -5.021331   1.000000
   62       -4.915136   1.000000
   63       -4.843928   1.000000
   64       -4.815187   1.000000
   65       -4.647070   1.000000
   66       -4.516683   1.000000
   67       -4.483284   1.000000
   68       -4.324643   1.000000
   69       -4.305113   1.000000
   70       -4.268479   1.000000
   71       -4.166376   1.000000
   72       -4.073855   1.000000
   73       -4.004128   1.000000
   74       -3.967728   1.000000
   75       -3.931963   1.000000
   76       -3.930587   1.000000
   77       -3.904539   1.000000
   78       -3.872386   1.000000
   79       -3.749935   1.000000
   80       -3.644098   1.000000
   81       -3.627361   1.000000
   82       -3.617856   1.000000
   83       -3.615392   1.000000
   84       -3.564330   1.000000
   85       -3.485340   1.000000
   86       -3.416351   1.000000
   87       -3.393303   1.000000
   88       -3.374390   1.000000
   89       -3.250544   1.000000
   90       -3.246387   1.000000
   91       -3.217179   1.000000
   92       -3.209391   1.000000
   93       -3.137706   1.000000
   94       -3.055853   1.000000
   95       -3.021354   1.000000
   96       -2.974963   1.000000
   97       -2.877802   1.000000
   98       -2.762985   1.000000
   99       -2.755552   1.000000
  100       -2.583394   1.000000
  101       -2.440760   1.000000
  102       -2.307978   1.000000
  103       -2.226598   1.000000
  104       -2.129357   1.000000
  105       -2.116845   1.000000
  106       -2.097930   1.000000
  107       -1.980960   1.000000
  108       -1.976992   1.000000
  109       -1.903797   1.000000
  110       -1.887298   1.000000
  111       -1.876818   1.000000
  112       -1.600609   1.000000
  113       -1.532019   1.000000
  114       -1.486738   1.000000
  115       -1.456947   1.000000
  116       -1.443293   1.000000
  117       -1.363641   1.000000
  118       -1.224099   1.000000
  119       -1.182993   1.000000
  120       -1.069730   1.000000
  121       -1.029735   1.000000
  122       -0.999159   1.000000
  123       -0.984903   1.000000
  124       -0.934615   1.000000
  125       -0.869606   1.000000
  126       -0.724941   1.000000
  127       -0.672665   1.000000
  128       -0.621627   1.000000
  129       -0.519706   1.000000
  130       -0.501843   1.000000
  131       -0.351552   1.000000
  132       -0.269056   1.000000
  133       -0.042066   1.000000
  134       -0.011003   1.000000
  135        0.128520   1.000169
  136        0.328067   1.010773
  137        0.382626   0.777615
  138        0.406416   0.594897
  139        0.486384   0.044836
  140        0.596015  -0.015091
  141        0.615138  -0.008679
  142        0.629462  -0.005370
  143        0.687703  -0.000453
  144        0.709335  -0.000148
  145        0.754822  -0.000010
  146        0.777007  -0.000002
  147        0.871570  -0.000000
  148        0.987721  -0.000000
  149        1.028923  -0.000000
  150        1.075748  -0.000000
  151        1.188663  -0.000000
  152        1.246577  -0.000000
  153        1.253628  -0.000000
  154        1.320711  -0.000000
  155        1.334763  -0.000000
  156        1.391537  -0.000000
  157        1.452298  -0.000000
  158        1.480406  -0.000000
  159        1.525993  -0.000000
  160        1.537859  -0.000000
  161        1.549836  -0.000000
  162        1.559623  -0.000000
  163        1.577063  -0.000000
  164        1.642338  -0.000000
  165        1.661279  -0.000000
  166        1.674034  -0.000000
  167        1.685167  -0.000000
  168        1.710550  -0.000000
  169        1.727658  -0.000000
  170        1.777694  -0.000000
  171        1.802834  -0.000000
  172        1.854659  -0.000000
  173        1.862054  -0.000000
  174        1.938087  -0.000000
  175        1.960800  -0.000000
  176        1.980592  -0.000000
  177        2.007638  -0.000000
  178        2.128933  -0.000000
  179        2.277698  -0.000000
  180        2.278004  -0.000000
  181        2.696779  -0.000000
  182        2.889319  -0.000000
  183        3.115629  -0.000000
  184        3.893476   0.000000

  0.3742002E-15  0.1262379E-14  0.1111111E+00  0.4444444E-01
    1      -13.943083   1.000000
    2      -12.782992   1.000000
    3      -12.764038   1.000000
    4      -12.726971   1.000000
    5      -11.969170   1.000000
    6      -11.649938   1.000000
    7      -11.602335   1.000000
    8      -11.488894   1.000000
    9      -11.480668   1.000000
   10      -11.316787   1.000000
   11      -11.166446   1.000000
   12      -10.981252   1.000000
   13      -10.943244   1.000000
   14      -10.451783   1.000000
   15      -10.421461   1.000000
   16      -10.237576   1.000000
   17      -10.110889   1.000000
   18       -9.989300   1.000000
   19       -9.777032   1.000000
   20       -9.598019   1.000000
   21       -9.501088   1.000000
   22       -9.469369   1.000000
   23       -9.348054   1.000000
   24       -9.326368   1.000000
   25       -8.823383   1.000000
   26       -8.787870   1.000000
   27       -8.586024   1.000000
   28       -8.396438   1.000000
   29       -8.306379   1.000000
   30       -8.112663   1.000000
   31       -7.924124   1.000000
   32       -7.823181   1.000000
   33       -7.780564   1.000000
   34       -7.366840   1.000000
   35       -7.308226   1.000000
   36       -7.263974   1.000000
   37       -6.946564   1.000000
   38       -6.819475   1.000000
   39       -6.797115   1.000000
   40       -6.716017   1.000000
   41       -6.589189   1.000000
   42       -6.586361   1.000000
   43       -6.552624   1.000000
   44       -6.427342   1.000000
   45       -6.291760   1.000000
   46       -6.219047   1.000000
   47       -6.186559   1.000000
   48       -6.095831   1.000000
   49       -6.090711   1.000000
   50       -5.840592   1.000000
   51       -5.707562   1.000000
   52       -5.644268   1.000000
   53       -5.615477   1.000000
   54       -5.582152   1.000000
   55       -5.474664   1.000000
   56       -5.397032   1.000000
   57       -5.344855   1.000000
   58       -5.289204   1.000000
   59       -5.252169   1.000000
   60       -5.171538   1.000000
   61       -5.091461   1.000000
   62       -4.972930   1.000000
   63       -4.625408   1.000000
   64       -4.603397   1.000000
   65       -4.576288   1.000000
   66       -4.499615   1.000000
   67       -4.474294   1.000000
   68       -4.353909   1.000000
   69       -4.259309   1.000000
   70       -4.081494   1.000000
   71       -4.056461   1.000000
   72       -4.026022   1.000000
   73       -3.988903   1.000000
   74       -3.947135   1.000000
   75       -3.925642   1.000000
   76       -3.891141   1.000000
   77       -3.877828   1.000000
   78       -3.874404   1.000000
   79       -3.867741   1.000000
   80       -3.760163   1.000000
   81       -3.706937   1.000000
   82       -3.691735   1.000000
   83       -3.627634   1.000000
   84       -3.601397   1.000000
   85       -3.559434   1.000000
   86       -3.501434   1.000000
   87       -3.485008   1.000000
   88       -3.431158   1.000000
   89       -3.424287   1.000000
   90       -3.409372   1.000000
   91       -3.331901   1.000000
   92       -3.229897   1.000000
   93       -3.173898   1.000000
   94       -2.911422   1.000000
   95       -2.871343   1.000000
   96       -2.831765   1.000000
   97       -2.731284   1.000000
   98       -2.654859   1.000000
   99       -2.582612   1.000000
  100       -2.446689   1.000000
  101       -2.409547   1.000000
  102       -2.374401   1.000000
  103       -2.348137   1.000000
  104       -2.195656   1.000000
  105       -2.152234   1.000000
  106       -2.120158   1.000000
  107       -2.036863   1.000000
  108       -1.953593   1.000000
  109       -1.940689   1.000000
  110       -1.898298   1.000000
  111       -1.838205   1.000000
  112       -1.793579   1.000000
  113       -1.694717   1.000000
  114       -1.651621   1.000000
  115       -1.644341   1.000000
  116       -1.604355   1.000000
  117       -1.538480   1.000000
  118       -1.472016   1.000000
  119       -1.345259   1.000000
  120       -1.217296   1.000000
  121       -1.183766   1.000000
  122       -0.923403   1.000000
  123       -0.852569   1.000000
  124       -0.700028   1.000000
  125       -0.661243   1.000000
  126       -0.507927   1.000000
  127       -0.486563   1.000000
  128       -0.460941   1.000000
  129       -0.412802   1.000000
  130       -0.152862   1.000000
  131       -0.096468   1.000000
  132       -0.073140   1.000000
  133        0.224106   1.009776
  134        0.271666   1.029375
  135        0.300621   1.034977
  136        0.324612   1.016401
  137        0.354167   0.935275
  138        0.364751   0.885907
  139        0.449203   0.247563
  140        0.488045   0.038958
  141        0.497093   0.011545
  142        0.501612   0.000630
  143        0.655670  -0.001949
  144        0.680681  -0.000636
  145        0.692937  -0.000349
  146        0.861998  -0.000000
  147        0.888184  -0.000000
  148        0.927829  -0.000000
  149        1.019277  -0.000000
  150        1.057699  -0.000000
  151        1.077212  -0.000000
  152        1.116709  -0.000000
  153        1.145591  -0.000000
  154        1.221998  -0.000000
  155        1.260590  -0.000000
  156        1.321663  -0.000000
  157        1.334836  -0.000000
  158        1.343392  -0.000000
  159        1.391863  -0.000000
  160        1.425311  -0.000000
  161        1.453085  -0.000000
  162        1.480528  -0.000000
  163        1.504625  -0.000000
  164        1.533943  -0.000000
  165        1.611073  -0.000000
  166        1.625271  -0.000000
  167        1.641080  -0.000000
  168        1.681426  -0.000000
  169        1.689746  -0.000000
  170        1.722737  -0.000000
  171        1.748011  -0.000000
  172        1.781330  -0.000000
  173        1.855294  -0.000000
  174        1.888260  -0.000000
  175        1.901812  -0.000000
  176        1.940576  -0.000000
  177        1.986727  -0.000000
  178        2.081400  -0.000000
  179        2.496103  -0.000000
  180        2.522426  -0.000000
  181        2.583895  -0.000000
  182        2.652650  -0.000000
  183        2.788196  -0.000000
  184        4.095229   0.000000

  0.2000000E+00  0.1262379E-14  0.1111111E+00  0.4444444E-01
    1      -13.894141   1.000000
    2      -13.179952   1.000000
    3      -12.691707   1.000000
    4      -12.283204   1.000000
    5      -12.015239   1.000000
    6      -11.950000   1.000000
    7      -11.656562   1.000000
    8      -11.305850   1.000000
    9      -11.277042   1.000000
   10      -11.191502   1.000000
   11      -11.102312   1.000000
   12      -11.075058   1.000000
   13      -10.824082   1.000000
   14      -10.538105   1.000000
   15      -10.531670   1.000000
   16      -10.485657   1.000000
   17      -10.459215   1.000000
   18       -9.785809   1.000000
   19       -9.763492   1.000000
   20       -9.520801   1.000000
   21       -9.459867   1.000000
   22       -9.441000   1.000000
   23       -9.372550   1.000000
   24       -9.294313   1.000000
   25       -9.012637   1.000000
   26       -8.802527   1.000000
   27       -8.291009   1.000000
   28       -8.248689   1.000000
   29       -8.137765   1.000000
   30       -8.086699   1.000000
   31       -8.028984   1.000000
   32       -7.858251   1.000000
   33       -7.679975   1.000000
   34       -7.504859   1.000000
   35       -7.333751   1.000000
   36       -7.270766   1.000000
   37       -7.056458   1.000000
   38       -6.904221   1.000000
   39       -6.864288   1.000000
   40       -6.820334   1.000000
   41       -6.659260   1.000000
   42       -6.580810   1.000000
   43       -6.496951   1.000000
   44       -6.434079   1.000000
   45       -6.408858   1.000000
   46       -6.343260   1.000000
   47       -6.110639   1.000000
   48       -6.053902   1.000000
   49       -5.935182   1.000000
   50       -5.804080   1.000000
   51       -5.723607   1.000000
   52       -5.675451   1.000000
   53       -5.632052   1.000000
   54       -5.529725   1.000000
   55       -5.420199   1.000000
   56       -5.287476   1.000000
   57       -5.216667   1.000000
   58       -5.188998   1.000000
   59       -5.151906   1.000000
   60       -5.101725   1.000000
   61       -5.076583   1.000000
   62       -5.004074   1.000000
   63       -4.935395   1.000000
   64       -4.729838   1.000000
   65       -4.627249   1.000000
   66       -4.496734   1.000000
   67       -4.374323   1.000000
   68       -4.325177   1.000000
   69       -4.299646   1.000000
   70       -4.102487   1.000000
   71       -4.080047   1.000000
   72       -4.043970   1.000000
   73       -3.998151   1.000000
   74       -3.972049   1.000000
   75       -3.952533   1.000000
   76       -3.908356   1.000000
   77       -3.882373   1.000000
   78       -3.828831   1.000000
   79       -3.743260   1.000000
   80       -3.711977   1.000000
   81       -3.696505   1.000000
   82       -3.678373   1.000000
   83       -3.646459   1.000000
   84       -3.607999   1.000000
   85       -3.581202   1.000000
   86       -3.529368   1.000000
   87       -3.499906   1.000000
   88       -3.455536   1.000000
   89       -3.412883   1.000000
   90       -3.355499   1.000000
   91       -3.277644   1.000000
   92       -3.235388   1.000000
   93       -3.187824   1.000000
   94       -2.923607   1.000000
   95       -2.870755   1.000000
   96       -2.826789   1.000000
   97       -2.787314   1.000000
   98       -2.749290   1.000000
   99       -2.613907   1.000000
  100       -2.552794   1.000000
  101       -2.439946   1.000000
  102       -2.310029   1.000000
  103       -2.272689   1.000000
  104       -2.228412   1.000000
  105       -2.153367   1.000000
  106       -2.098154   1.000000
  107       -1.977344   1.000000
  108       -1.949317   1.000000
  109       -1.914553   1.000000
  110       -1.892038   1.000000
  111       -1.854003   1.000000
  112       -1.767702   1.000000
  113       -1.689904   1.000000
  114       -1.617969   1.000000
  115       -1.556372   1.000000
  116       -1.527968   1.000000
  117       -1.474059   1.000000
  118       -1.419018   1.000000
  119       -1.332271   1.000000
  120       -1.240384   1.000000
  121       -1.148943   1.000000
  122       -0.967554   1.000000
  123       -0.836339   1.000000
  124       -0.794463   1.000000
  125       -0.736342   1.000000
  126       -0.620444   1.000000
  127       -0.566685   1.000000
  128       -0.563428   1.000000
  129       -0.332943   1.000000
  130       -0.267793   1.000000
  131       -0.101765   1.000000
  132        0.029016   1.000000
  133        0.138446   1.000284
  134        0.191324   1.003114
  135        0.211242   1.006451
  136        0.227712   1.010895
  137        0.282866   1.033477
  138        0.372093   0.845077
  139        0.425606   0.433402
  140        0.509604  -0.014544
  141        0.565761  -0.028511
  142        0.584035  -0.020175
  143        0.674738  -0.000841
  144        0.702381  -0.000214
  145        0.720732  -0.000079
  146        0.846374  -0.000000
  147        0.926298  -0.000000
  148        0.960537  -0.000000
  149        1.008385  -0.000000
  150        1.067197  -0.000000
  151        1.094818  -0.000000
  152        1.106897  -0.000000
  153        1.227313  -0.000000
  154        1.296555  -0.000000
  155        1.346636  -0.000000
  156        1.367683  -0.000000
  157        1.384289  -0.000000