 running on   72 total cores
 distrk:  each k-point on   72 cores,    1 groups
 distr:  one band on    9 cores,    8 groups
 using from now: INCAR     
 vasp.5.4.4.18Apr17-6-g9f103f2a35 (build Dec  7 2020 12:43:57) complex           
 POSCAR found type information on POSCAR  Mo V  B  H 
 POSCAR found :  4 types and      74 ions
 scaLAPACK will be used

 ----------------------------------------------------------------------------- 
|                                                                             |
|  ADVICE TO THIS USER RUNNING 'VASP/VAMP'   (HEAR YOUR MASTER'S VOICE ...):  |
|                                                                             |
|      You enforced a specific xc-type in the INCAR file,                     |
|      a different type was found on the POTCAR file                          |
|          I HOPE YOU KNOW, WHAT YOU ARE  DOING                               |
|                                                                             |
 ----------------------------------------------------------------------------- 

 LDA part: xc-table for Pade appr. of Perdew
 POSCAR, INCAR and KPOINTS ok, starting setup
 resort distribution
 resort distribution
 resort distribution
 resort distribution
 resort distribution
 resort distribution
 resort distribution
 resort distribution
 resort distribution
 resort distribution
 resort distribution
 resort distribution
 resort distribution
 resort distribution
 resort distribution
 resort distribution
 resort distribution
 resort distribution
 resort distribution
 resort distribution
 resort distribution
 resort distribution
 resort distribution
 resort distribution
 resort distribution
 resort distribution
 resort distribution
 resort distribution
 resort distribution
 resort distribution
 resort distribution
 resort distribution
 resort distribution
 resort distribution
 resort distribution
 resort distribution
 resort distribution
 resort distribution
 resort distribution
 resort distribution
 resort distribution
 resort distribution
 resort distribution
 resort distribution
 resort distribution
 resort distribution
 resort distribution
 resort distribution
 resort distribution
 resort distribution
 resort distribution
 resort distribution
 resort distribution
 resort distribution
 resort distribution
 resort distribution
 resort distribution
 resort distribution
 resort distribution
 resort distribution
 resort distribution
 resort distribution
 resort distribution
 resort distribution
 resort distribution
 resort distribution
 resort distribution
 resort distribution
 resort distribution
 resort distribution
 resort distribution
 resort distribution
 FFT: planning ...
 WAVECAR not read
 augmentation electrons   278.02614406746670     
 soft         electrons   0.0000000000000000     
 augmentation electrons   278.02614406746670     
 soft         electrons   0.0000000000000000     
 augmentation electrons   278.02614406746670     
 soft         electrons   0.0000000000000000     
 augmentation electrons   278.02614406746670     
 soft         electrons   0.0000000000000000     
 augmentation electrons   278.02614406746670     
 soft         electrons   0.0000000000000000     
 augmentation electrons   278.02614406746670     
 soft         electrons   0.0000000000000000     
 augmentation electrons   278.02614406746670     
 soft         electrons   0.0000000000000000     
 augmentation electrons   278.02614406746670     
 soft         electrons   0.0000000000000000     
 augmentation electrons   278.02614406746670     
 soft         electrons   0.0000000000000000     
 augmentation electrons   278.02614406746670     
 soft         electrons   0.0000000000000000     
 augmentation electrons   278.02614406746670     
 soft         electrons   0.0000000000000000     
 augmentation electrons   278.02614406746670     
 soft         electrons   0.0000000000000000     
 augmentation electrons   278.02614406746670     
 soft         electrons   0.0000000000000000     
 augmentation electrons   278.02614406746670     
 soft         electrons   0.0000000000000000     
 augmentation electrons   278.02614406746670     
 soft         electrons   0.0000000000000000     
 augmentation electrons   278.02614406746670     
 soft         electrons   0.0000000000000000     
 augmentation electrons   278.02614406746670     
 soft         electrons   0.0000000000000000     
 augmentation electrons   278.02614406746670     
 soft         electrons   0.0000000000000000     
 augmentation electrons   278.02614406746670     
 soft         electrons   0.0000000000000000     
 augmentation electrons   278.02614406746670     
 soft         electrons   0.0000000000000000     
 augmentation electrons   278.02614406746670     
 soft         electrons   0.0000000000000000     
 augmentation electrons   278.02614406746670     
 soft         electrons   0.0000000000000000     
 augmentation electrons   278.02614406746670     
 soft         electrons   0.0000000000000000     
 augmentation electrons   278.02614406746670     
 soft         electrons   0.0000000000000000     
 augmentation electrons   278.02614406746670     
 soft         electrons   0.0000000000000000     
 augmentation electrons   278.02614406746670     
 soft         electrons   0.0000000000000000     
 augmentation electrons   278.02614406746670     
 soft         electrons   0.0000000000000000     
 augmentation electrons   278.02614406746670     
 soft         electrons   0.0000000000000000     
 augmentation electrons   278.02614406746670     
 soft         electrons   0.0000000000000000     
 augmentation electrons   278.02614406746670     
 soft         electrons   0.0000000000000000     
 augmentation electrons   278.02614406746670     
 soft         electrons   0.0000000000000000     
 augmentation electrons   278.02614406746670     
 soft         electrons   0.0000000000000000     
 augmentation electrons   278.02614406746670     
 soft         electrons   0.0000000000000000     
 augmentation electrons   278.02614406746670     
 soft         electrons   0.0000000000000000     
 augmentation electrons   278.02614406746670     
 soft         electrons   0.0000000000000000     
 augmentation electrons   278.02614406746670     
 soft         electrons   0.0000000000000000     
 augmentation electrons   278.02614406746670     
 soft         electrons   0.0000000000000000     
 augmentation electrons   278.02614406746670     
 soft         electrons   0.0000000000000000     
 augmentation electrons   278.02614406746670     
 soft         electrons   0.0000000000000000     
 augmentation electrons   278.02614406746670     
 soft         electrons   0.0000000000000000     
 augmentation electrons   278.02614406746670     
 soft         electrons   0.0000000000000000     
 augmentation electrons   278.02614406746670     
 soft         electrons   0.0000000000000000     
 augmentation electrons   278.02614406746670     
 soft         electrons   0.0000000000000000     
 augmentation electrons   278.02614406746670     
 soft         electrons   0.0000000000000000     
 augmentation electrons   278.02614406746670     
 soft         electrons   0.0000000000000000     
 augmentation electrons   278.02614406746670     
 soft         electrons   0.0000000000000000     
 augmentation electrons   278.02614406746670     
 soft         electrons   0.0000000000000000     
 augmentation electrons   278.02614406746670     
 soft         electrons   0.0000000000000000     
 augmentation electrons   278.02614406746670     
 soft         electrons   0.0000000000000000     
 augmentation electrons   278.02614406746670     
 soft         electrons   0.0000000000000000     
 augmentation electrons   278.02614406746670     
 soft         electrons   0.0000000000000000     
 augmentation electrons   278.02614406746670     
 soft         electrons   0.0000000000000000     
 augmentation electrons   278.02614406746670     
 soft         electrons   0.0000000000000000     
 augmentation electrons   278.02614406746670     
 soft         electrons   0.0000000000000000     
 augmentation electrons   278.02614406746670     
 soft         electrons   0.0000000000000000     
 augmentation electrons   278.02614406746670     
 soft         electrons   0.0000000000000000     
 augmentation electrons   278.02614406746670     
 soft         electrons   0.0000000000000000     
 augmentation electrons   278.02614406746670     
 soft         electrons   0.0000000000000000     
 augmentation electrons   278.02614406746670     
 soft         electrons   0.0000000000000000     
 augmentation electrons   278.02614406746670     
 soft         electrons   0.0000000000000000     
 augmentation electrons   278.02614406746670     
 soft         electrons   0.0000000000000000     
 augmentation electrons   278.02614406746670     
 soft         electrons   0.0000000000000000     
 augmentation electrons   278.02614406746670     
 soft         electrons   0.0000000000000000     
 augmentation electrons   278.02614406746670     
 soft         electrons   0.0000000000000000     
 augmentation electrons   278.02614406746670     
 soft         electrons   0.0000000000000000     
 augmentation electrons   278.02614406746670     
 soft         electrons   0.0000000000000000     
 augmentation electrons   278.02614406746670     
 soft         electrons   0.0000000000000000     
 augmentation electrons   278.02614406746670     
 soft         electrons   0.0000000000000000     
 augmentation electrons   278.02614406746670     
 soft         electrons   0.0000000000000000     
 augmentation electrons   278.02614406746670     
 soft         electrons   0.0000000000000000     
 augmentation electrons   278.02614406746670     
 soft         electrons   0.0000000000000000     
 augmentation electrons   278.02614406746670     
 soft         electrons   0.0000000000000000     
 total        electrons   278.02614406746670     
 total        electrons   278.02614406746670     
 total        electrons   278.02614406746670     
 total        electrons   278.02614406746670     
 total        electrons   278.02614406746670     
 total        electrons   278.02614406746670     
 total        electrons   278.02614406746670     
 total        electrons   278.02614406746670     
 total        electrons   278.02614406746670     
 total        electrons   278.02614406746670     
 total        electrons   278.02614406746670     
 total        electrons   278.02614406746670     
 total        electrons   278.02614406746670     
 total        electrons   278.02614406746670     
 total        electrons   278.02614406746670     
 total        electrons   278.02614406746670     
 total        electrons   278.02614406746670     
 total        electrons   278.02614406746670     
 total        electrons   278.02614406746670     
 total        electrons   278.02614406746670     
 total        electrons   278.02614406746670     
 total        electrons   278.02614406746670     
 total        electrons   278.02614406746670     
 total        electrons   278.02614406746670     
 total        electrons   278.02614406746670     
 total        electrons   278.02614406746670     
 total        electrons   278.02614406746670     
 total        electrons   278.02614406746670     
 total        electrons   278.02614406746670     
 total        electrons   278.02614406746670     
 total        electrons   278.02614406746670     
 total        electrons   278.02614406746670     
 total        electrons   278.02614406746670     
 total        electrons   278.02614406746670     
 total        electrons   278.02614406746670     
 total        electrons   278.02614406746670     
 total        electrons   278.02614406746670     
 total        electrons   278.02614406746670     
 total        electrons   278.02614406746670     
 total        electrons   278.02614406746670     
 total        electrons   278.02614406746670     
 total        electrons   278.02614406746670     
 total        electrons   278.02614406746670     
 total        electrons   278.02614406746670     
 total        electrons   278.02614406746670     
 total        electrons   278.02614406746670     
 total        electrons   278.02614406746670     
 total        electrons   278.02614406746670     
 total        electrons   278.02614406746670     
 total        electrons   278.02614406746670     
 total        electrons   278.02614406746670     
 total        electrons   278.02614406746670     
 total        electrons   278.02614406746670     
 total        electrons   278.02614406746670     
 total        electrons   278.02614406746670     
 total        electrons   278.02614406746670     
 total        electrons   278.02614406746670     
 total        electrons   278.02614406746670     
 total        electrons   278.02614406746670     
 total        electrons   278.02614406746670     
 total        electrons   278.02614406746670     
 total        electrons   278.02614406746670     
 total        electrons   278.02614406746670     
 total        electrons   278.02614406746670     
 total        electrons   278.02614406746670     
 total        electrons   278.02614406746670     
 total        electrons   278.02614406746670     
 total        electrons   278.02614406746670     
 total        electrons   278.02614406746670     
 total        electrons   278.02614406746670     
 total        electrons   278.02614406746670     
 total        electrons   278.02614406746670     
 augmentation electrons   864.17172981569820     
 soft         electrons   0.0000000000000000     
 total        electrons   864.17172981569820     
 augmentation electrons   864.17172981569820     
 soft         electrons   0.0000000000000000     
 total        electrons   864.17172981569820     
 augmentation electrons   864.17172981569820     
 soft         electrons   0.0000000000000000     
 total        electrons   864.17172981569820     
 augmentation electrons   864.17172981569820     
 soft         electrons   0.0000000000000000     
 total        electrons   864.17172981569820     
 augmentation electrons   864.17172981569820     
 soft         electrons   0.0000000000000000     
 total        electrons   864.17172981569820     
 augmentation electrons   864.17172981569820     
 soft         electrons   0.0000000000000000     
 total        electrons   864.17172981569820     
 augmentation electrons   864.17172981569820     
 soft         electrons   0.0000000000000000     
 total        electrons   864.17172981569820     
 augmentation electrons   864.17172981569820     
 soft         electrons   0.0000000000000000     
 augmentation electrons   864.17172981569820     
 soft         electrons   0.0000000000000000     
 total        electrons   864.17172981569820     
 augmentation electrons   864.17172981569820     
 soft         electrons   0.0000000000000000     
 total        electrons   864.17172981569820     
 augmentation electrons   864.17172981569820     
 soft         electrons   0.0000000000000000     
 total        electrons   864.17172981569820     
 augmentation electrons   864.17172981569820     
 soft         electrons   0.0000000000000000     
 total        electrons   864.17172981569820     
 augmentation electrons   864.17172981569820     
 soft         electrons   0.0000000000000000     
 total        electrons   864.17172981569820     
 augmentation electrons   864.17172981569820     
 soft         electrons   0.0000000000000000     
 total        electrons   864.17172981569820     
 augmentation electrons   864.17172981569820     
 soft         electrons   0.0000000000000000     
 total        electrons   864.17172981569820     
 augmentation electrons   864.17172981569820     
 soft         electrons   0.0000000000000000     
 total        electrons   864.17172981569820     
 augmentation electrons   864.17172981569820     
 soft         electrons   0.0000000000000000     
 total        electrons   864.17172981569820     
 augmentation electrons   864.17172981569820     
 soft         electrons   0.0000000000000000     
 total        electrons   864.17172981569820     
 augmentation electrons   864.17172981569820     
 soft         electrons   0.0000000000000000     
 total        electrons   864.17172981569820     
 augmentation electrons   864.17172981569820     
 soft         electrons   0.0000000000000000     
 total        electrons   864.17172981569820     
 augmentation electrons   864.17172981569820     
 soft         electrons   0.0000000000000000     
 augmentation electrons   864.17172981569820     
 soft         electrons   0.0000000000000000     
 total        electrons   864.17172981569820     
 augmentation electrons   864.17172981569820     
 soft         electrons   0.0000000000000000     
 total        electrons   864.17172981569820     
 augmentation electrons   864.17172981569820     
 soft         electrons   0.0000000000000000     
 total        electrons   864.17172981569820     
 augmentation electrons   864.17172981569820     
 soft         electrons   0.0000000000000000     
 total        electrons   864.17172981569820     
 augmentation electrons   864.17172981569820     
 soft         electrons   0.0000000000000000     
 total        electrons   864.17172981569820     
 augmentation electrons   864.17172981569820     
 soft         electrons   0.0000000000000000     
 total        electrons   864.17172981569820     
 augmentation electrons   864.17172981569820     
 soft         electrons   0.0000000000000000     
 total        electrons   864.17172981569820     
 augmentation electrons   864.17172981569820     
 soft         electrons   0.0000000000000000     
 total        electrons   864.17172981569820     
 augmentation electrons   864.17172981569820     
 soft         electrons   0.0000000000000000     
 total        electrons   864.17172981569820     
 augmentation electrons   864.17172981569820     
 soft         electrons   0.0000000000000000     
 total        electrons   864.17172981569820     
 augmentation electrons   864.17172981569820     
 soft         electrons   0.0000000000000000     
 total        electrons   864.17172981569820     
 augmentation electrons   864.17172981569820     
 soft         electrons   0.0000000000000000     
 total        electrons   864.17172981569820     
 augmentation electrons   864.17172981569820     
 soft         electrons   0.0000000000000000     
 total        electrons   864.17172981569820     
 augmentation electrons   864.17172981569820     
 soft         electrons   0.0000000000000000     
 total        electrons   864.17172981569820     
 augmentation electrons   864.17172981569820     
 soft         electrons   0.0000000000000000     
 total        electrons   864.17172981569820     
 augmentation electrons   864.17172981569820     
 soft         electrons   0.0000000000000000     
 total        electrons   864.17172981569820     
 augmentation electrons   864.17172981569820     
 soft         electrons   0.0000000000000000     
 total        electrons   864.17172981569820     
 augmentation electrons   864.17172981569820     
 soft         electrons   0.0000000000000000     
 total        electrons   864.17172981569820     
 augmentation electrons   864.17172981569820     
 soft         electrons   0.0000000000000000     
 total        electrons   864.17172981569820     
 augmentation electrons   864.17172981569820     
 soft         electrons   0.0000000000000000     
 total        electrons   864.17172981569820     
 augmentation electrons   864.17172981569820     
 soft         electrons   0.0000000000000000     
 total        electrons   864.17172981569820     
 augmentation electrons   864.17172981569820     
 soft         electrons   0.0000000000000000     
 total        electrons   864.17172981569820     
 augmentation electrons   864.17172981569820     
 soft         electrons   0.0000000000000000     
 total        electrons   864.17172981569820     
 augmentation electrons   864.17172981569820     
 soft         electrons   0.0000000000000000     
 total        electrons   864.17172981569820     
 augmentation electrons   864.17172981569820     
 soft         electrons   0.0000000000000000     
 total        electrons   864.17172981569820     
 augmentation electrons   864.17172981569820     
 soft         electrons   0.0000000000000000     
 total        electrons   864.17172981569820     
 augmentation electrons   864.17172981569820     
 soft         electrons   0.0000000000000000     
 total        electrons   864.17172981569820     
 augmentation electrons   864.17172981569820     
 soft         electrons   0.0000000000000000     
 total        electrons   864.17172981569820     
 augmentation electrons   864.17172981569820     
 soft         electrons   0.0000000000000000     
 total        electrons   864.17172981569820     
 augmentation electrons   864.17172981569820     
 soft         electrons   0.0000000000000000     
 total        electrons   864.17172981569820     
 augmentation electrons   864.17172981569820     
 soft         electrons   0.0000000000000000     
 total        electrons   864.17172981569820     
 augmentation electrons   864.17172981569820     
 soft         electrons   0.0000000000000000     
 total        electrons   864.17172981569820     
 augmentation electrons   864.17172981569820     
 soft         electrons   0.0000000000000000     
 total        electrons   864.17172981569820     
 augmentation electrons   864.17172981569820     
 soft         electrons   0.0000000000000000     
 total        electrons   864.17172981569820     
 augmentation electrons   864.17172981569820     
 soft         electrons   0.0000000000000000     
 total        electrons   864.17172981569820     
 augmentation electrons   864.17172981569820     
 soft         electrons   0.0000000000000000     
 total        electrons   864.17172981569820     
 augmentation electrons   864.17172981569820     
 soft         electrons   0.0000000000000000     
 total        electrons   864.17172981569820     
 augmentation electrons   864.17172981569820     
 soft         electrons   0.0000000000000000     
 total        electrons   864.17172981569820     
 augmentation electrons   864.17172981569820     
 soft         electrons   0.0000000000000000     
 total        electrons   864.17172981569820     
 augmentation electrons   864.17172981569820     
 soft         electrons   0.0000000000000000     
 total        electrons   864.17172981569820     
 augmentation electrons   864.17172981569820     
 soft         electrons   0.0000000000000000     
 total        electrons   864.17172981569820     
 augmentation electrons   864.17172981569820     
 soft         electrons   0.0000000000000000     
 total        electrons   864.17172981569820     
 augmentation electrons   864.17172981569820     
 soft         electrons   0.0000000000000000     
 total        electrons   864.17172981569820     
 augmentation electrons   864.17172981569820     
 soft         electrons   0.0000000000000000     
 total        electrons   864.17172981569820     
 augmentation electrons   864.17172981569820     
 soft         electrons   0.0000000000000000     
 total        electrons   864.17172981569820     
 augmentation electrons   864.17172981569820     
 soft         electrons   0.0000000000000000     
 total        electrons   864.17172981569820     
 augmentation electrons   864.17172981569820     
 soft         electrons   0.0000000000000000     
 total        electrons   864.17172981569820     
 augmentation electrons   864.17172981569820     
 soft         electrons   0.0000000000000000     
 total        electrons   864.17172981569820     
 augmentation electrons   864.17172981569820     
 soft         electrons   0.0000000000000000     
 total        electrons   864.17172981569820     
 augmentation electrons   864.17172981569820     
 soft         electrons   0.0000000000000000     
 total        electrons   864.17172981569820     
 augmentation electrons   864.17172981569820     
 soft         electrons   0.0000000000000000     
 total        electrons   864.17172981569820     
 total        electrons   864.17172981569820     
 total        electrons   864.17172981569820     
 entering main loop
       N       E                     dE             d eps       ncg     rms          rms(c)
DAV:   1     0.306602151298E+04    0.30660E+04   -0.94649E+04  8464   0.127E+03
DAV:   2     0.860039894230E+02   -0.29800E+04   -0.27388E+04  8992   0.331E+02
DAV:   3    -0.607088947408E+03   -0.69309E+03   -0.66428E+03 11784   0.194E+02
DAV:   4    -0.674926860800E+03   -0.67838E+02   -0.64604E+02 13944   0.666E+01
DAV:   5    -0.678668945083E+03   -0.37421E+01   -0.35572E+01 14200   0.163E+01    0.141E+02
RMM:   6    -0.622687361800E+03    0.55982E+02   -0.13973E+03 11527   0.111E+02    0.770E+01
RMM:   7    -0.665655397884E+03   -0.42968E+02   -0.69530E+02 10095   0.963E+01    0.573E+01
RMM:   8    -0.578633239849E+03    0.87022E+02   -0.10323E+02  9119   0.370E+01    0.293E+01
RMM:   9    -0.576782033348E+03    0.18512E+01   -0.60796E+01 10795   0.229E+01    0.280E+01
RMM:  10    -0.559158548572E+03    0.17623E+02   -0.20306E+01 11066   0.118E+01    0.184E+01
RMM:  11    -0.558847558347E+03    0.31099E+00   -0.68447E+00 11375   0.615E+00    0.165E+01
RMM:  12    -0.558723534931E+03    0.12402E+00   -0.19085E+00 13142   0.213E+00    0.150E+01
RMM:  13    -0.558404523868E+03    0.31901E+00   -0.10893E+00 10670   0.310E+00    0.134E+01
RMM:  14    -0.557916031021E+03    0.48849E+00   -0.34112E+00 10662   0.561E+00    0.886E+00
RMM:  15    -0.557536047999E+03    0.37998E+00   -0.20545E+00  9922   0.469E+00    0.516E+00
RMM:  16    -0.557389769239E+03    0.14628E+00   -0.12474E+00 10322   0.320E+00    0.368E+00
RMM:  17    -0.557279378350E+03    0.11039E+00   -0.70177E-01 11537   0.197E+00    0.205E+00
RMM:  18    -0.557273051807E+03    0.63265E-02   -0.38371E-01 12973   0.118E+00    0.204E+00
RMM:  19    -0.557252108346E+03    0.20943E-01   -0.98730E-02 11952   0.777E-01    0.152E+00
RMM:  20    -0.557223409873E+03    0.28698E-01   -0.66146E-02 11226   0.659E-01    0.677E-01
RMM:  21    -0.557223623135E+03   -0.21326E-03   -0.68598E-02 11842   0.611E-01    0.950E-01
RMM:  22    -0.557214426361E+03    0.91968E-02   -0.29028E-02 11970   0.426E-01    0.678E-01
RMM:  23    -0.557212316429E+03    0.21099E-02   -0.85376E-03 12373   0.197E-01    0.357E-01
RMM:  24    -0.557211006625E+03    0.13098E-02   -0.70713E-03 12579   0.191E-01    0.256E-01
RMM:  25    -0.557209699888E+03    0.13067E-02   -0.31348E-03 11803   0.151E-01    0.150E-01
RMM:  26    -0.557208975183E+03    0.72470E-03   -0.24051E-03 13016   0.840E-02    0.160E-01
RMM:  27    -0.557208912716E+03    0.62468E-04   -0.87367E-04 12707   0.612E-02    0.108E-01
RMM:  28    -0.557209354466E+03   -0.44175E-03   -0.10432E-03 12269   0.764E-02    0.982E-02
RMM:  29    -0.557209933069E+03   -0.57860E-03   -0.78632E-04 12419   0.631E-02    0.852E-02
RMM:  30    -0.557210368904E+03   -0.43584E-03   -0.32002E-04 11713   0.339E-02    0.563E-02
RMM:  31    -0.557210517155E+03   -0.14825E-03   -0.16526E-04 11591   0.284E-02    0.413E-02
RMM:  32    -0.557210633272E+03   -0.11612E-03   -0.82400E-05 12345   0.179E-02    0.230E-02
RMM:  33    -0.557210788242E+03   -0.15497E-03   -0.70689E-05 11674   0.172E-02    0.214E-02
RMM:  34    -0.557210810624E+03   -0.22382E-04   -0.63678E-05 11778   0.127E-02    0.186E-02
RMM:  35    -0.557210848252E+03   -0.37628E-04   -0.10146E-05  8807   0.785E-03    0.121E-02
RMM:  36    -0.557210961093E+03   -0.11284E-03   -0.10959E-05  9583   0.668E-03    0.936E-03
RMM:  37    -0.557211115246E+03   -0.15415E-03   -0.10513E-05  7949   0.576E-03    0.111E-02
RMM:  38    -0.557211180754E+03   -0.65508E-04   -0.53634E-06  7815   0.595E-03    0.106E-02
RMM:  39    -0.557211271052E+03   -0.90298E-04   -0.84505E-06  8430   0.505E-03    0.955E-03
RMM:  40    -0.557211341766E+03   -0.70714E-04   -0.82594E-06  8341   0.617E-03    0.467E-03
RMM:  41    -0.557211378666E+03   -0.36900E-04   -0.37088E-06  7444   0.351E-03    0.218E-03
RMM:  42    -0.557211394983E+03   -0.16316E-04   -0.12292E-06  6679   0.343E-03    0.245E-03
RMM:  43    -0.557211406005E+03   -0.11022E-04   -0.10076E-06  6481   0.247E-03    0.133E-03
RMM:  44    -0.557211409896E+03   -0.38912E-05   -0.38602E-07  5758   0.183E-03    0.103E-03
RMM:  45    -0.557211415318E+03   -0.54216E-05   -0.53879E-07  5634   0.136E-03    0.541E-04
RMM:  46    -0.557211417500E+03   -0.21822E-05   -0.28842E-07  4829   0.125E-03    0.320E-04
RMM:  47    -0.557211417827E+03   -0.32674E-06   -0.14343E-07  4078   0.872E-04
   1 F= -.55721142E+03 E0= -.55721197E+03  d E =0.164983E-02
 augmentation electrons   35.607193509224345     
 soft         electrons   242.48849618765954     
 augmentation electrons   35.607193509224345     
 soft         electrons   242.48849618765954     
 augmentation electrons   35.607193509224345     
 soft         electrons   242.48849618765954     
 augmentation electrons   35.607193509224345     
 soft         electrons   242.48849618765954     
 augmentation electrons   35.607193509224345     
 soft         electrons   242.48849618765954     
 augmentation electrons   35.607193509224345     
 soft         electrons   242.48849618765954     
 augmentation electrons   35.607193509224345     
 soft         electrons   242.48849618765954     
 augmentation electrons   35.607193509224345     
 soft         electrons   242.48849618765954     
 augmentation electrons   35.607193509224345     
 soft         electrons   242.48849618765954     
 augmentation electrons   35.607193509224345     
 soft         electrons   242.48849618765954     
 augmentation electrons   35.607193509224345     
 soft         electrons   242.48849618765954     
 augmentation electrons   35.607193509224345     
 soft         electrons   242.48849618765954     
 augmentation electrons   35.607193509224345     
 soft         electrons   242.48849618765954     
 augmentation electrons   35.607193509224345     
 soft         electrons   242.48849618765954     
 augmentation electrons   35.607193509224345     
 soft         electrons   242.48849618765954     
 augmentation electrons   35.607193509224345     
 soft         electrons   242.48849618765954     
 augmentation electrons   35.607193509224345     
 soft         electrons   242.48849618765954     
 augmentation electrons   35.607193509224345     
 soft         electrons   242.48849618765954     
 augmentation electrons   35.607193509224345     
 soft         electrons   242.48849618765954     
 augmentation electrons   35.607193509224345     
 soft         electrons   242.48849618765954     
 augmentation electrons   35.607193509224345     
 soft         electrons   242.48849618765954     
 augmentation electrons   35.607193509224345     
 soft         electrons   242.48849618765954     
 augmentation electrons   35.607193509224345     
 soft         electrons   242.48849618765954     
 augmentation electrons   35.607193509224345     
 soft         electrons   242.48849618765954     
 augmentation electrons   35.607193509224345     
 soft         electrons   242.48849618765954     
 augmentation electrons   35.607193509224345     
 soft         electrons   242.48849618765954     
 augmentation electrons   35.607193509224345     
 soft         electrons   242.48849618765954     
 augmentation electrons   35.607193509224345     
 soft         electrons   242.48849618765954     
 augmentation electrons   35.607193509224345     
 soft         electrons   242.48849618765954     
 augmentation electrons   35.607193509224345     
 soft         electrons   242.48849618765954     
 augmentation electrons   35.607193509224345     
 soft         electrons   242.48849618765954     
 augmentation electrons   35.607193509224345     
 soft         electrons   242.48849618765954     
 augmentation electrons   35.607193509224345     
 soft         electrons   242.48849618765954     
 augmentation electrons   35.607193509224345     
 soft         electrons   242.48849618765954     
 augmentation electrons   35.607193509224345     
 soft         electrons   242.48849618765954     
 augmentation electrons   35.607193509224345     
 soft         electrons   242.48849618765954     
 augmentation electrons   35.607193509224345     
 soft         electrons   242.48849618765954     
 augmentation electrons   35.607193509224345     
 soft         electrons   242.48849618765954     
 augmentation electrons   35.607193509224345     
 soft         electrons   242.48849618765954     
 augmentation electrons   35.607193509224345     
 soft         electrons   242.48849618765954     
 augmentation electrons   35.607193509224345     
 soft         electrons   242.48849618765954     
 augmentation electrons   35.607193509224345     
 soft         electrons   242.48849618765954     
 augmentation electrons   35.607193509224345     
 soft         electrons   242.48849618765954     
 augmentation electrons   35.607193509224345     
 soft         electrons   242.48849618765954     
 augmentation electrons   35.607193509224345     
 soft         electrons   242.48849618765954     
 augmentation electrons   35.607193509224345     
 soft         electrons   242.48849618765954     
 augmentation electrons   35.607193509224345     
 soft         electrons   242.48849618765954     
 augmentation electrons   35.607193509224345     
 soft         electrons   242.48849618765954     
 augmentation electrons   35.607193509224345     
 soft         electrons   242.48849618765954     
 augmentation electrons   35.607193509224345     
 soft         electrons   242.48849618765954     
 augmentation electrons   35.607193509224345     
 soft         electrons   242.48849618765954     
 augmentation electrons   35.607193509224345     
 soft         electrons   242.48849618765954     
 augmentation electrons   35.607193509224345     
 soft         electrons   242.48849618765954     
 augmentation electrons   35.607193509224345     
 soft         electrons   242.48849618765954     
 augmentation electrons   35.607193509224345     
 soft         electrons   242.48849618765954     
 augmentation electrons   35.607193509224345     
 soft         electrons   242.48849618765954     
 augmentation electrons   35.607193509224345     
 soft         electrons   242.48849618765954     
 augmentation electrons   35.607193509224345     
 soft         electrons   242.48849618765954     
 augmentation electrons   35.607193509224345     
 soft         electrons   242.48849618765954     
 augmentation electrons   35.607193509224345     
 soft         electrons   242.48849618765954     
 augmentation electrons   35.607193509224345     
 soft         electrons   242.48849618765954     
 augmentation electrons   35.607193509224345     
 soft         electrons   242.48849618765954     
 augmentation electrons   35.607193509224345     
 soft         electrons   242.48849618765954     
 augmentation electrons   35.607193509224345     
 soft         electrons   242.48849618765954     
 augmentation electrons   35.607193509224345     
 soft         electrons   242.48849618765954     
 augmentation electrons   35.607193509224345     
 soft         electrons   242.48849618765954     
 augmentation electrons   35.607193509224345     
 soft         electrons   242.48849618765954     
 augmentation electrons   35.607193509224345     
 soft         electrons   242.48849618765954     
 augmentation electrons   35.607193509224345     
 soft         electrons   242.48849618765954     
 augmentation electrons   35.607193509224345     
 soft         electrons   242.48849618765954     
 augmentation electrons   35.607193509224345     
 soft         electrons   242.48849618765954     
 augmentation electrons   35.607193509224345     
 soft         electrons   242.48849618765954     
 total        electrons   278.09568969688388     
 total        electrons   278.09568969688388     
 total        electrons   278.09568969688388     
 total        electrons   278.09568969688388     
 total        electrons   278.09568969688388     
 total        electrons   278.09568969688388     
 total        electrons   278.09568969688388     
 total        electrons   278.09568969688388     
 total        electrons   278.09568969688388     
 total        electrons   278.09568969688388     
 total        electrons   278.09568969688388     
 total        electrons   278.09568969688388     
 total        electrons   278.09568969688388     
 total        electrons   278.09568969688388     
 total        electrons   278.09568969688388     
 total        electrons   278.09568969688388     
 total        electrons   278.09568969688388     
 total        electrons   278.09568969688388     
 total        electrons   278.09568969688388     
 total        electrons   278.09568969688388     
 total        electrons   278.09568969688388     
 total        electrons   278.09568969688388     
 total        electrons   278.09568969688388     
 total        electrons   278.09568969688388     
 total        electrons   278.09568969688388     
 total        electrons   278.09568969688388     
 total        electrons   278.09568969688388     
 total        electrons   278.09568969688388     
 total        electrons   278.09568969688388     
 total        electrons   278.09568969688388     
 total        electrons   278.09568969688388     
 total        electrons   278.09568969688388     
 total        electrons   278.09568969688388     
 total        electrons   278.09568969688388     
 total        electrons   278.09568969688388     
 total        electrons   278.09568969688388     
 total        electrons   278.09568969688388     
 total        electrons   278.09568969688388     
 total        electrons   278.09568969688388     
 total        electrons   278.09568969688388     
 total        electrons   278.09568969688388     
 total        electrons   278.09568969688388     
 total        electrons   278.09568969688388     
 total        electrons   278.09568969688388     
 total        electrons   278.09568969688388     
 total        electrons   278.09568969688388     
 total        electrons   278.09568969688388     
 total        electrons   278.09568969688388     
 total        electrons   278.09568969688388     
 total        electrons   278.09568969688388     
 total        electrons   278.09568969688388     
 total        electrons   278.09568969688388     
 total        electrons   278.09568969688388     
 total        electrons   278.09568969688388     
 total        electrons   278.09568969688388     
 total        electrons   278.09568969688388     
 total        electrons   278.09568969688388     
 total        electrons   278.09568969688388     
 total        electrons   278.09568969688388     
 total        electrons   278.09568969688388     
 total        electrons   278.09568969688388     
 total        electrons   278.09568969688388     
 total        electrons   278.09568969688388     
 total        electrons   278.09568969688388     
 total        electrons   278.09568969688388     
 total        electrons   278.09568969688388     
 total        electrons   278.09568969688388     
 total        electrons   278.09568969688388     
 total        electrons   278.09568969688388     
 total        electrons   278.09568969688388     
 total        electrons   278.09568969688388     
 total        electrons   278.09568969688388     
Note: The following floating-point exceptions are signalling: IEEE_OVERFLOW_FLAG
Note: The following floating-point exceptions are signalling: IEEE_OVERFLOW_FLAG
Note: The following floating-point exceptions are signalling: IEEE_OVERFLOW_FLAG
Note: The following floating-point exceptions are signalling: IEEE_OVERFLOW_FLAG
Note: The following floating-point exceptions are signalling: IEEE_OVERFLOW_FLAG
Note: The following floating-point exceptions are signalling: IEEE_OVERFLOW_FLAG
Note: The following floating-point exceptions are signalling: IEEE_OVERFLOW_FLAG
Note: The following floating-point exceptions are signalling: IEEE_OVERFLOW_FLAG
Note: The following floating-point exceptions are signalling: IEEE_OVERFLOW_FLAG
Note: The following floating-point exceptions are signalling: IEEE_OVERFLOW_FLAG
Note: The following floating-point exceptions are signalling: IEEE_OVERFLOW_FLAG
Note: The following floating-point exceptions are signalling: IEEE_OVERFLOW_FLAG
Note: The following floating-point exceptions are signalling: IEEE_OVERFLOW_FLAG
Note: The following floating-point exceptions are signalling: IEEE_OVERFLOW_FLAG
Note: The following floating-point exceptions are signalling: IEEE_OVERFLOW_FLAG
Note: The following floating-point exceptions are signalling: IEEE_OVERFLOW_FLAG
Note: The following floating-point exceptions are signalling: IEEE_OVERFLOW_FLAG
Note: The following floating-point exceptions are signalling: IEEE_OVERFLOW_FLAG
Note: The following floating-point exceptions are signalling: IEEE_OVERFLOW_FLAG
Note: The following floating-point exceptions are signalling: IEEE_OVERFLOW_FLAG
Note: The following floating-point exceptions are signalling: IEEE_OVERFLOW_FLAG
Note: The following floating-point exceptions are signalling: IEEE_OVERFLOW_FLAG
Note: The following floating-point exceptions are signalling: IEEE_OVERFLOW_FLAG
Note: The following floating-point exceptions are signalling: IEEE_OVERFLOW_FLAG
Note: The following floating-point exceptions are signalling: IEEE_OVERFLOW_FLAG
Note: The following floating-point exceptions are signalling: IEEE_OVERFLOW_FLAG
Note: The following floating-point exceptions are signalling: IEEE_OVERFLOW_FLAG
Note: The following floating-point exceptions are signalling: IEEE_OVERFLOW_FLAG
Note: The following floating-point exceptions are signalling: IEEE_OVERFLOW_FLAG
Note: The following floating-point exceptions are signalling: IEEE_OVERFLOW_FLAG
Note: The following floating-point exceptions are signalling: IEEE_OVERFLOW_FLAG
Note: The following floating-point exceptions are signalling: IEEE_OVERFLOW_FLAG
Note: The following floating-point exceptions are signalling: IEEE_OVERFLOW_FLAG
Note: The following floating-point exceptions are signalling: IEEE_OVERFLOW_FLAG
Note: The following floating-point exceptions are signalling: IEEE_OVERFLOW_FLAG
Note: The following floating-point exceptions are signalling: IEEE_OVERFLOW_FLAG
Note: The following floating-point exceptions are signalling: IEEE_OVERFLOW_FLAG
Note: The following floating-point exceptions are signalling: IEEE_OVERFLOW_FLAG
Note: The following floating-point exceptions are signalling: IEEE_OVERFLOW_FLAG
Note: The following floating-point exceptions are signalling: IEEE_OVERFLOW_FLAG
Note: The following floating-point exceptions are signalling: IEEE_OVERFLOW_FLAG
Note: The following floating-point exceptions are signalling: IEEE_OVERFLOW_FLAG
Note: The following floating-point exceptions are signalling: IEEE_OVERFLOW_FLAG
Note: The following floating-point exceptions are signalling: IEEE_OVERFLOW_FLAG
Note: The following floating-point exceptions are signalling: IEEE_OVERFLOW_FLAG
Note: The following floating-point exceptions are signalling: IEEE_OVERFLOW_FLAG
Note: The following floating-point exceptions are signalling: IEEE_OVERFLOW_FLAG
Note: The following floating-point exceptions are signalling: IEEE_OVERFLOW_FLAG
Note: The following floating-point exceptions are signalling: IEEE_OVERFLOW_FLAG
Note: The following floating-point exceptions are signalling: IEEE_OVERFLOW_FLAG
Note: The following floating-point exceptions are signalling: IEEE_OVERFLOW_FLAG
Note: The following floating-point exceptions are signalling: IEEE_OVERFLOW_FLAG
Note: The following floating-point exceptions are signalling: IEEE_OVERFLOW_FLAG
Note: The following floating-point exceptions are signalling: IEEE_OVERFLOW_FLAG
Note: The following floating-point exceptions are signalling: IEEE_OVERFLOW_FLAG
Note: The following floating-point exceptions are signalling: IEEE_OVERFLOW_FLAG
Note: The following floating-point exceptions are signalling: IEEE_OVERFLOW_FLAG
Note: The following floating-point exceptions are signalling: IEEE_OVERFLOW_FLAG
Note: The following floating-point exceptions are signalling: IEEE_OVERFLOW_FLAG
Note: The following floating-point exceptions are signalling: IEEE_OVERFLOW_FLAG
Note: The following floating-point exceptions are signalling: IEEE_OVERFLOW_FLAG
Note: The following floating-point exceptions are signalling: IEEE_OVERFLOW_FLAG
Note: The following floating-point exceptions are signalling: IEEE_OVERFLOW_FLAG
Note: The following floating-point exceptions are signalling: IEEE_OVERFLOW_FLAG
Note: The following floating-point exceptions are signalling: IEEE_OVERFLOW_FLAG
Note: The following floating-point exceptions are signalling: IEEE_OVERFLOW_FLAG
Note: The following floating-point exceptions are signalling: IEEE_OVERFLOW_FLAG
Note: The following floating-point exceptions are signalling: IEEE_OVERFLOW_FLAG
Note: The following floating-point exceptions are signalling: IEEE_OVERFLOW_FLAG
Note: The following floating-point exceptions are signalling: IEEE_OVERFLOW_FLAG
Note: The following floating-point exceptions are signalling: IEEE_OVERFLOW_FLAG
Note: The following floating-point exceptions are signalling: IEEE_OVERFLOW_FLAG
