    3    3   60    1
  0.8144830E+01  0.3039000E-09  0.3039000E-09  0.3055000E-09  0.5000000E-15
   1.0000000000000000E-004
  CAR 
 Name                                    
     12    216     10

  0.3742002E-15  0.3742002E-15  0.3742002E-15  0.2962963E-03
    1       -5.440766   1.000000
    2        4.540624   1.000000
    3        4.936982   1.000000
    4        4.936985   1.000000
    5        6.118384   1.000000
    6       10.028097  -0.013706
    7       10.028098  -0.013707
    8       12.446157  -0.000000
    9       12.453144  -0.000000
   10       14.797700   0.000000

  0.6666667E-01  0.3766815E-15  0.3742002E-15  0.1777778E-02
    1       -5.348344   1.000000
    2        4.613952   1.000000
    3        4.719126   1.000000
    4        4.981895   1.000000
    5        5.904342   1.000000
    6        9.983085   0.150531
    7       10.326122  -0.000000
    8       11.965036  -0.000000
    9       12.059340  -0.000000
   10       15.195878   0.000000

  0.1333333E+00  0.3754153E-15  0.3742002E-15  0.1777778E-02
    1       -5.075701   1.000000
    2        4.122220   1.000000
    3        4.817992   1.000000
    4        5.097234   1.000000
    5        5.418645   1.000000
    6        9.858486   0.985398
    7       11.029538  -0.000000
    8       11.108544  -0.000000
    9       11.452704  -0.000000
   10       15.812391   0.000000

  0.2000000E+00  0.3870416E-15  0.3742002E-15  0.1777778E-02
    1       -4.635965   1.000000
    2        3.311720   1.000000
    3        4.877941   1.000000
    4        5.019914   1.000000
    5        5.230612   1.000000
    6        9.681689   1.000922
    7       10.442977  -0.000000
    8       11.035570  -0.000000
    9       11.792094  -0.000000
   10       16.240538   0.000000

  0.2666667E+00  0.4120044E-15  0.3742002E-15  0.1777778E-02
    1       -4.048738   1.000000
    2        2.394325   1.000000
    3        4.393078   1.000000
    4        5.057834   1.000000
    5        5.322527   1.000000
    6        9.487712   1.000000
    7       10.281357  -0.000006
    8       10.905358  -0.000000
    9       12.247530  -0.000000
   10       16.534122   0.000000

  0.3333333E+00  0.4025434E-15  0.3742002E-15  0.1777778E-02
    1       -3.338693   1.000000
    2        1.432532   1.000000
    3        4.010476   1.000000
    4        4.877269   1.000000
    5        5.346624   1.000000
    6        9.310314   1.000000
    7       10.709979  -0.000000
    8       11.030396  -0.000000
    9       12.233810  -0.000000
   10       16.574840   0.000000

  0.4000000E+00  0.3732510E-15  0.3742002E-15  0.1777778E-02
    1       -2.539243   1.000000
    2        0.466061   1.000000
    3        3.749539   1.000000
    4        4.622767   1.000000
    5        5.325474   1.000000
    6        9.176716   1.000000
    7       11.277083  -0.000000
    8       11.506317  -0.000000
    9       12.012013  -0.000000
   10       16.537706   0.000000

  0.4666667E+00  0.3915456E-15  0.3742002E-15  0.1777778E-02
    1       -1.743986   1.000000
    2       -0.412586   1.000000
    3        3.617776   1.000000
    4        4.456514   1.000000
    5        5.301020   1.000000
    6        9.105336   1.000000
    7       11.466169  -0.000000
    8       11.848075  -0.000000
    9       12.212735  -0.000000
   10       16.373961   0.000000

  0.6666667E-01  0.6666667E-01  0.3742002E-15  0.1777778E-02
    1       -5.165761   1.000000
    2        4.325739   1.000000
    3        4.733958   1.000000
    4        5.067031   1.000000
    5        5.562971   1.000000
    6        9.872532   0.937934
    7       10.847402  -0.000000
    8       11.373188  -0.000000
    9       11.562596  -0.000000
   10       15.750083   0.000000

  0.1333333E+00  0.6666667E-01  0.3742002E-15  0.3555556E-02
    1       -4.809279   1.000000
    2        3.660729   1.000000
    3        4.816998   1.000000
    4        5.076778   1.000000
    5        5.277510   1.000000
    6        9.652668   1.000222
    7       10.621319  -0.000000
    8       11.153332  -0.000000
    9       11.650346  -0.000000
   10       16.296403   0.000000

  0.2000000E+00  0.6666667E-01  0.3742002E-15  0.3555556E-02
    1       -4.294876   1.000000
    2        2.835116   1.000000
    3        4.597694   1.000000
    4        4.734370   1.000000
    5        5.574169   1.000000
    6        9.369025   1.000000
    7       10.093223  -0.024686
    8       11.059954  -0.000000
    9       12.396799  -0.000000
   10       16.427770   0.000000

  0.2666667E+00  0.6666667E-01  0.3742002E-15  0.3555556E-02
    1       -3.644008   1.000000
    2        1.926139   1.000000
    3        4.196561   1.000000
    4        4.505158   1.000000
    5        5.782852   1.000000
    6        9.070674   1.000000
    7       10.028162  -0.013811
    8       11.283311  -0.000000
    9       12.738714   0.000000
   10       16.608600   0.000000

  0.3333333E+00  0.6666667E-01  0.3742002E-15  0.3555556E-02
    1       -2.883700   1.000000
    2        0.977895   1.000000
    3        3.902062   1.000000
    4        4.223474   1.000000
    5        5.832343   1.000000
    6        8.808350   1.000000
    7       10.422552  -0.000000
    8       11.692457  -0.000000
    9       12.679930   0.000000
   10       16.765963   0.000000

  0.4000000E+00  0.6666667E-01  0.3742002E-15  0.3555556E-02
    1       -2.059178   1.000000
    2        0.038794   1.000000
    3        3.724007   1.000000
    4        4.003322   1.000000
    5        5.801522   1.000000
    6        8.628489   1.000000
    7       10.984900  -0.000000
    8       12.071880  -0.000000
    9       12.528909  -0.000000
   10       16.717398   0.000000

  0.4666667E+00  0.6666667E-01  0.3742002E-15  0.1777778E-02
    1       -1.462422   1.000000
    2       -0.596642   1.000000
    3        3.664606   1.000000
    4        3.921605   1.000000
    5        5.780832   1.000000
    6        8.564455   1.000000
    7       11.263584  -0.000000
    8       12.221190  -0.000000
    9       12.463889  -0.000000
   10       16.674290   0.000000

  0.1333333E+00  0.1333333E+00  0.3742002E-15  0.1777778E-02
    1       -4.377426   1.000000
    2        3.049250   1.000000
    3        4.537353   1.000000
    4        4.688489   1.000000
    5        5.676397   1.000000
    6        9.237972   1.000000
    7       10.012220   0.022385
    8       11.146583  -0.000000
    9       12.559674  -0.000000
   10       16.363274   0.000000

  0.2000000E+00  0.1333333E+00  0.3742002E-15  0.3555556E-02
    1       -3.796965   1.000000
    2        2.325378   1.000000
    3        4.094699   1.000000
    4        4.348243   1.000000
    5        6.141069   1.000000
    6        8.729428   1.000000
    7        9.551836   1.000000
    8       11.473528  -0.000000
    9       13.420708   0.000000
   10       16.139032   0.000000

  0.2666667E+00  0.1333333E+00  0.3742002E-15  0.3555556E-02
    1       -3.089837   1.000000
    2        1.502581   1.000000
    3        3.638459   1.000000
    4        4.095379   1.000000
    5        6.477745   1.000000
    6        8.233320   1.000000
    7        9.518735   1.000000
    8       11.903462  -0.000000
    9       13.815862   0.000000
   10       16.577745   0.000000

  0.3333333E+00  0.1333333E+00  0.3742002E-15  0.3555556E-02
    1       -2.285600   1.000000
    2        0.606441   1.000000
    3        3.288367   1.000000
    4        3.936709   1.000000
    5        6.577757   1.000000
    6        7.841469   1.000000
    7        9.981121   0.162197
    8       12.121066  -0.000000
    9       13.811488   0.000000
   10       17.337889   0.000000

  0.4000000E+00  0.1333333E+00  0.3742002E-15  0.3555556E-02
    1       -1.458495   1.000000
    2       -0.274351   1.000000
    3        3.103757   1.000000
    4        3.862727   1.000000
    5        6.565249   1.000000
    6        7.625274   1.000000
    7       10.601097  -0.000000
    8       11.973487  -0.000000
    9       13.746404   0.000000
   10       17.501142   0.000000

  0.2000000E+00  0.2000000E+00  0.3742002E-15  0.1777778E-02
    1       -3.158344   1.000000
    2        1.785424   1.000000
    3        3.332467   1.000000
    4        4.188974   1.000000
    5        6.798887   1.000000
    6        7.988832   1.000000
    7        9.098839   1.000000
    8       11.978271  -0.000000
    9       14.560218   0.000000
   10       15.996965   0.000000

  0.2666667E+00  0.2000000E+00  0.3742002E-15  0.3555556E-02
    1       -2.400728   1.000000
    2        1.140570   1.000000
    3        2.672112   1.000000
    4        4.132324   1.000000
    5        7.311307   1.000000
    6        7.318507   1.000000
    7        9.053632   1.000000
    8       12.167612  -0.000000
    9       15.150265   0.000000
   10       16.521453   0.000000

  0.3333333E+00  0.2000000E+00  0.3742002E-15  0.3555556E-02
    1       -1.557013   1.000000
    2        0.334732   1.000000
    3        2.279805   1.000000
    4        4.146966   1.000000
    5        6.824106   1.000000
    6        7.450856   1.000000
    7        9.615377   1.000027
    8       11.829272  -0.000000
    9       15.161681   0.000000
   10       17.510289   0.000000

  0.4000000E+00  0.2000000E+00  0.3742002E-15  0.1777778E-02
    1       -0.843867   1.000000
    2       -0.378662   1.000000
    3        2.157927   1.000000
    4        4.165947   1.000000
    5        6.642691   1.000000
    6        7.442576   1.000000
    7       10.125558  -0.011274
    8       11.417775  -0.000000
    9       15.138004   0.000000
   10       17.977971   0.000000

  0.2666667E+00  0.2666667E+00  0.3742002E-15  0.1777778E-02
    1       -1.598293   1.000000
    2        0.782484   1.000000
    3        1.766642   1.000000
    4        4.309776   1.000000
    5        6.481309   1.000000
    6        8.207032   1.000000
    7        8.795470   1.000000
    8       11.787627  -0.000000
    9       16.431962   0.000000
   10       16.523350   0.000000

  0.3333333E+00  0.2666667E+00  0.3742002E-15  0.3555556E-02
    1       -0.720612   1.000000
    2        0.169369   1.000000
    3        1.262212   1.000000
    4        4.546165   1.000000
    5        5.903091   1.000000
    6        8.407636   1.000000
    7        9.371325   1.000000
    8       11.028884  -0.000000
    9       16.420700   0.000000
   10       17.470052   0.000000

  0.3333333E+00  0.3333333E+00  0.3742002E-15  0.5925926E-03
    1        0.071263   1.000000
    2        0.071265   1.000000
    3        0.450533   1.000000
    4        5.135079   1.000000
    5        5.135081   1.000000
    6        9.161552   1.000000
    7        9.161553   1.000000
    8       10.417200  -0.000000
    9       17.215526   0.000000
   10       17.215527   0.000000

  0.3742002E-15  0.3742002E-15  0.6666667E-01  0.5925926E-03
    1       -5.373041   1.000000
    2        4.267628   1.000000
    3        4.990217   1.000000
    4        4.990220   1.000000
    5        6.342051   1.000000
    6        9.822667   1.034236
    7        9.822668   1.034236
    8       12.297349  -0.000000
    9       12.297352  -0.000000
   10       15.115228   0.000000

  0.6666667E-01  0.3766815E-15  0.6666667E-01  0.3555556E-02
    1       -5.281693   1.000000
    2        4.328266   1.000000
    3        4.762644   1.000000
    4        5.029819   1.000000
    5        6.133668   1.000000
    6        9.751883   1.012642
    7       10.087185  -0.027445
    8       11.965210  -0.000000
    9       12.053370  -0.000000
   10       15.389154   0.000000

  0.1333333E+00  0.3754153E-15  0.6666667E-01  0.3555556E-02
    1       -5.012363   1.000000
    2        4.150449   1.000000
    3        4.462075   1.000000
    4        5.126490   1.000000
    5        5.709439   1.000000
    6        9.584547   1.000004
    7       10.455667  -0.000000
    8       11.580608  -0.000000
    9       11.631355  -0.000000
   10       15.810234   0.000000

  0.2000000E+00  0.3870416E-15  0.6666667E-01  0.3555556E-02
    1       -4.578276   1.000000
    2        3.308480   1.000000
    3        4.504212   1.000000
    4        5.222931   1.000000
    5        5.350183   1.000000
    6        9.429089   1.000000
    7       10.238388  -0.000085
    8       11.302041  -0.000000
    9       11.970000  -0.000000
   10       15.991179   0.000000

  0.2666667E+00  0.4120044E-15  0.6666667E-01  0.3555556E-02
    1       -3.998973   1.000000
    2        2.364054   1.000000
    3        4.316430   1.000000
    4        5.133571   1.000000
    5        5.260447   1.000000
    6        9.365819   1.000000
    7       10.166729  -0.002699
    8       11.137206  -0.000000
    9       12.345888  -0.000000
   10       16.162113   0.000000

  0.3333333E+00  0.4025434E-15  0.6666667E-01  0.3555556E-02
    1       -3.298232   1.000000
    2        1.385298   1.000000
    3        4.052907   1.000000
    4        4.891367   1.000000
    5        5.227270   1.000000
    6        9.369371   1.000000
    7       10.554674  -0.000000
    8       11.162939  -0.000000
    9       12.348275  -0.000000
   10       16.771986   0.000000

  0.4000000E+00  0.3732510E-15  0.6666667E-01  0.3555556E-02
    1       -2.505729   1.000000
    2        0.409667   1.000000
    3        3.849030   1.000000
    4        4.629694   1.000000
    5        5.162870   1.000000
    6        9.373231   1.000000
    7       11.104836  -0.000000
    8       11.329091  -0.000000
    9       12.362497  -0.000000
   10       16.554263   0.000000

  0.4666667E+00  0.3915456E-15  0.6666667E-01  0.3555556E-02
    1       -1.695500   1.000000
    2       -0.491160   1.000000
    3        3.743300   1.000000
    4        4.464336   1.000000
    5        5.116408   1.000000
    6        9.366509   1.000000
    7       11.307492  -0.000000
    8       11.481725  -0.000000
    9       12.721084   0.000000
   10       16.210507   0.000000

  0.6666667E-01  0.6666667E-01  0.6666667E-01  0.3555556E-02
    1       -5.101317   1.000000
    2        4.366214   1.000000
    3        4.426106   1.000000
    4        5.050265   1.000000
    5        5.856583   1.000000
    6        9.565311   1.000001
    7       10.506660  -0.000000
    8       11.520008  -0.000000
    9       11.796172  -0.000000
   10       15.843501   0.000000

  0.1333333E+00  0.6666667E-01  0.6666667E-01  0.7111111E-02
    1       -4.749341   1.000000
    2        3.683223   1.000000
    3        4.515199   1.000000
    4        4.937006   1.000000
    5        5.681597   1.000000
    6        9.245552   1.000000
    7       10.661317  -0.000000
    8       11.167354  -0.000000
    9       11.906694  -0.000000
   10       16.206309   0.000000

  0.2000000E+00  0.6666667E-01  0.6666667E-01  0.7111111E-02
    1       -4.241837   1.000000
    2        2.828172   1.000000
    3        4.401282   1.000000
    4        4.733782   1.000000
    5        5.733800   1.000000
    6        8.968799   1.000000
    7       10.382244  -0.000000
    8       11.114038  -0.000000
    9       12.469664  -0.000000
   10       16.124092   0.000000

  0.2666667E+00  0.6666667E-01  0.6666667E-01  0.7111111E-02
    1       -3.599930   1.000000
    2        1.893487   1.000000
    3        4.145481   1.000000
    4        4.507386   1.000000
    5        5.774819   1.000000
    6        8.878771   1.000000
    7       10.316877  -0.000001
    8       11.259662  -0.000000
    9       12.768891   0.000000
   10       16.375500   0.000000

  0.3333333E+00  0.6666667E-01  0.6666667E-01  0.7111111E-02
    1       -2.848917   1.000000
    2        0.930064   1.000000
    3        3.932415   1.000000
    4        4.237403   1.000000
    5        5.702094   1.000000
    6        8.899970   1.000000
    7       10.564163  -0.000000
    8       11.551907  -0.000000
    9       12.779431   0.000000
   10       16.758131   0.000000

  0.4000000E+00  0.6666667E-01  0.6666667E-01  0.7111111E-02
    1       -2.026374   1.000000
    2       -0.020204   1.000000
    3        3.814626   1.000000
    4        4.009996   1.000000
    5        5.600178   1.000000
    6        8.885728   1.000000
    7       11.021572  -0.000000
    8       11.725010  -0.000000
    9       12.854477   0.000000
   10       16.577382   0.000000

  0.4666667E+00  0.6666667E-01  0.6666667E-01  0.3555556E-02
    1       -1.391696   1.000000
    2       -0.697520   1.000000
    3        3.786911   1.000000
    4        3.913898   1.000000
    5        5.556875   1.000000
    6        8.868780   1.000000
    7       11.285251  -0.000000
    8       11.718040  -0.000000
    9       12.953788   0.000000
   10       16.433795   0.000000

  0.1333333E+00  0.1333333E+00  0.6666667E-01  0.3555556E-02
    1       -4.323320   1.000000
    2        3.069952   1.000000
    3        4.357112   1.000000
    4        4.572710   1.000000
    5        5.962473   1.000000
    6        8.683225   1.000000
    7       10.553017  -0.000000
    8       11.062584  -0.000000
    9       12.599092  -0.000000
   10       16.220770   0.000000

  0.2000000E+00  0.1333333E+00  0.6666667E-01  0.7111111E-02
    1       -3.751138   1.000000
    2        2.326652   1.000000
    3        3.913163   1.000000
    4        4.382444   1.000000
    5        6.301101   1.000000
    6        8.217437   1.000000
    7       10.127367  -0.010688
    8       11.434012  -0.000000
    9       13.361118   0.000000
   10       16.013408   0.000000

  0.2666667E+00  0.1333333E+00  0.6666667E-01  0.7111111E-02
    1       -3.054115   1.000000
    2        1.477207   1.000000
    3        3.525786   1.000000
    4        4.182591   1.000000
    5        6.412245   1.000000
    6        8.091343   1.000000
    7        9.923540   0.610492
    8       11.843209  -0.000000
    9       13.742623   0.000000
   10       16.377171   0.000000

  0.3333333E+00  0.1333333E+00  0.6666667E-01  0.7111111E-02
    1       -2.258955   1.000000
    2        0.563982   1.000000
    3        3.244672   1.000000
    4        4.035510   1.000000
    5        6.259528   1.000000
    6        8.154707   1.000000
    7       10.155573  -0.004150
    8       12.027540  -0.000000
    9       13.807589   0.000000
   10       16.888813   0.000000

  0.4000000E+00  0.1333333E+00  0.6666667E-01  0.7111111E-02
    1       -1.422403   1.000000
    2       -0.337660   1.000000
    3        3.095867   1.000000
    4        3.964947   1.000000
    5        6.116386   1.000000
    6        8.152246   1.000000
    7       10.662203  -0.000000
    8       11.876882  -0.000000
    9       13.801199   0.000000
   10       17.075175   0.000000

  0.2000000E+00  0.2000000E+00  0.6666667E-01  0.3555556E-02
    1       -3.122293   1.000000
    2        1.786525   1.000000
    3        3.197894   1.000000
    4        4.245185   1.000000
    5        6.962239   1.000000
    6        7.488369   1.000000
    7        9.670195   1.000536
    8       11.939451  -0.000000
    9       14.393777   0.000000
   10       15.901184   0.000000

  0.2666667E+00  0.2000000E+00  0.6666667E-01  0.7111111E-02
    1       -2.376281   1.000000
    2        1.122085   1.000000
    3        2.605822   1.000000
    4        4.194677   1.000000
    5        6.778030   1.000000
    6        7.686269   1.000000
    7        9.446379   1.000000
    8       12.127384  -0.000000
    9       15.002467   0.000000
   10       16.336034   0.000000

  0.3333333E+00  0.2000000E+00  0.6666667E-01  0.7111111E-02
    1       -1.541812   1.000000
    2        0.298665   1.000000
    3        2.265398   1.000000
    4        4.213254   1.000000
    5        6.323902   1.000000
    6        7.998330   1.000000
    7        9.773557   1.021609
    8       11.809390  -0.000000
    9       15.086750   0.000000
   10       17.153364   0.000000

  0.4000000E+00  0.2000000E+00  0.6666667E-01  0.3555556E-02
    1       -0.790306   1.000000
    2       -0.460769   1.000000
    3        2.159785   1.000000
    4        4.235491   1.000000
    5        6.151240   1.000000
    6        8.035346   1.000000
    7       10.207185  -0.000442
    8       11.421836  -0.000000
    9       15.081532   0.000000
   10       17.536106   0.000000

  0.2666667E+00  0.2666667E+00  0.6666667E-01  0.3555556E-02
    1       -1.587897   1.000000
    2        0.759387   1.000000
    3        1.743216   1.000000
    4        4.350069   1.000000
    5        6.240781   1.000000
    6        8.337008   1.000000
    7        9.149583   1.000000
    8       11.780227  -0.000000
    9       16.293059   0.000000
   10       16.345274   0.000000

  0.3333333E+00  0.2666667E+00  0.6666667E-01  0.7111111E-02
    1       -0.724028   1.000000
    2        0.137210   1.000000
    3        1.273471   1.000000
    4        4.569748   1.000000
    5        5.735497   1.000000
    6        8.672642   1.000000
    7        9.519137   1.000000
    8       11.053971  -0.000000
    9       16.323700   0.000000
   10       17.276632   0.000000

  0.3333333E+00  0.3333333E+00  0.6666667E-01  0.1185185E-02
    1        0.018515   1.000000
    2        0.018518   1.000000
    3        0.535019   1.000000
    4        5.091363   1.000000
    5        5.091365   1.000000
    6        9.344622   1.000000
    7        9.344623   1.000000
    8       10.445167  -0.000000
    9       17.098015   0.000000
   10       17.098015   0.000000

  0.3742002E-15  0.3742002E-15  0.1333333E+00  0.5925926E-03
    1       -5.174053   1.000000
    2        3.664625   1.000000
    3        5.149501   1.000000
    4        5.149504   1.000000
    5        6.811648   1.000000
    6        9.338418   1.000000
    7        9.338420   1.000000
    8       11.879647  -0.000000
    9       11.879650  -0.000000
   10       15.698686   0.000000

  0.6666667E-01  0.3766815E-15  0.1333333E+00  0.3555556E-02
    1       -5.086091   1.000000
    2        3.717602   1.000000
    3        4.904460   1.000000
    4        5.171668   1.000000
    5        6.574538   1.000000
    6        9.236592   1.000000
    7        9.581578   1.000003
    8       11.777197  -0.000000
    9       11.878563  -0.000000
   10       15.997112   0.000000

  0.1333333E+00  0.3754153E-15  0.1333333E+00  0.3555556E-02
    1       -4.827099   1.000000
    2        3.813646   1.000000
    3        4.281788   1.000000
    4        5.208637   1.000000
    5        6.129928   1.000000
    6        9.055270   1.000000
    7        9.849500   1.006287
    8       11.818408  -0.000000
    9       11.838656  -0.000000
   10       15.946845   0.000000

  0.2000000E+00  0.3870416E-15  0.1333333E+00  0.3555556E-02
    1       -4.410789   1.000000
    2        3.254833   1.000000
    3        4.087848   1.000000
    4        5.192835   1.000000
    5        5.696046   1.000000
    6        9.005515   1.000000
    7        9.810789   1.035282
    8       11.739204  -0.000000
    9       12.274589  -0.000000
   10       15.700507   0.000000

  0.2666667E+00  0.4120044E-15  0.1333333E+00  0.3555556E-02
    1       -3.856623   1.000000
    2        2.279979   1.000000
    3        4.151718   1.000000
    4        5.085614   1.000000
    5        5.296791   1.000000
    6        9.182676   1.000000
    7        9.866582   0.960364
    8       11.616688  -0.000000
    9       12.634067  -0.000000
   10       15.694518   0.000000

  0.3333333E+00  0.4025434E-15  0.1333333E+00  0.3555556E-02
    1       -3.186403   1.000000
    2        1.277987   1.000000
    3        4.143212   1.000000
    4        4.922648   1.000000
    5        4.930832   1.000000
    6        9.515486   1.000000
    7       10.192574  -0.000888
    8       11.524910  -0.000000
    9       12.671860   0.000000
   10       16.139290   0.000000

  0.4000000E+00  0.3732510E-15  0.1333333E+00  0.3555556E-02
    1       -2.421899   1.000000
    2        0.293789   1.000000
    3        4.100975   1.000000
    4        4.635663   1.000000
    5        4.771852   1.000000
    6        9.839768   1.021671
    7       10.547475  -0.000000
    8       11.503232  -0.000000
    9       12.836576   0.000000
   10       16.254192   0.000000

  0.4666667E+00  0.3915456E-15  0.1333333E+00  0.3555556E-02
    1       -1.590239   1.000000
    2       -0.646378   1.000000
    3        4.070994   1.000000
    4        4.468809   1.000000
    5        4.684426   1.000000
    6       10.020324   0.001305
    7       10.680117  -0.000000
    8       11.530579  -0.000000
    9       13.283760   0.000000
   10       15.829550   0.000000

  0.6666667E-01  0.6666667E-01  0.1333333E+00  0.3555556E-02
    1       -4.912585   1.000000
    2        3.804785   1.000000
    3        4.485160   1.000000
    4        5.133791   1.000000
    5        6.315123   1.000000
    6        8.962178   1.000000
    7        9.968078   0.248553
    8       11.601586  -0.000000
    9       11.968254  -0.000000
   10       16.446136   0.000000

  0.1333333E+00  0.6666667E-01  0.1333333E+00  0.7111111E-02
    1       -4.574757   1.000000
    2        3.689589   1.000000
    3        3.985679   1.000000
    4        4.954625   1.000000
    5        6.151877   1.000000
    6        8.595436   1.000000
    7       10.262731  -0.000020
    8       11.517779  -0.000000
    9       12.224825  -0.000000
   10       16.091530   0.000000

  0.2000000E+00  0.6666667E-01  0.1333333E+00  0.7111111E-02
    1       -4.088976   1.000000
    2        2.792489   1.000000
    3        4.038919   1.000000
    4        4.716841   1.000000
    5        6.000818   1.000000
    6        8.459965   1.000000
    7       10.354015  -0.000000
    8       11.494769  -0.000000
    9       12.673755   0.000000
   10       15.763588   0.000000

  0.2666667E+00  0.6666667E-01  0.1333333E+00  0.7111111E-02
    1       -3.475744   1.000000
    2        1.811745   1.000000
    3        4.023074   1.000000
    4        4.487499   1.000000
    5        5.727909   1.000000
    6        8.682176   1.000000
    7       10.552600  -0.000000
    8       11.431634  -0.000000
    9       12.930322   0.000000
   10       15.901832   0.000000

  0.3333333E+00  0.6666667E-01  0.1333333E+00  0.7111111E-02
    1       -2.756637   1.000000
    2        0.826224   1.000000
    3        3.958340   1.000000
    4        4.285925   1.000000
    5        5.415395   1.000000
    6        9.102390   1.000000
    7       10.828213  -0.000000
    8       11.401917  -0.000000
    9       13.023890   0.000000
   10       16.278142   0.000000

  0.4000000E+00  0.6666667E-01  0.1333333E+00  0.7111111E-02
    1       -1.953420   1.000000
    2       -0.135739   1.000000
    3        3.895000   1.000000
    4        4.150388   1.000000
    5        5.182846   1.000000
    6        9.433180   1.000000
    7       11.079422  -0.000000
    8       11.387287  -0.000000
    9       13.272221   0.000000
   10       16.169751   0.000000

  0.4666667E+00  0.6666667E-01  0.1333333E+00  0.3555556E-02
    1       -1.184945   1.000000
    2       -0.956773   1.000000
    3        3.866885   1.000000
    4        4.106601   1.000000
    5        5.097955   1.000000
    6        9.538502   1.000000
    7       11.224572  -0.000000
    8       11.348379  -0.000000
    9       13.469739   0.000000
   10       15.962317   0.000000

  0.1333333E+00  0.1333333E+00  0.1333333E+00  0.3555556E-02
    1       -4.167044   1.000000
    2        3.129260   1.000000
    3        3.827307   1.000000
    4        4.566798   1.000000
    5        6.478180   1.000000
    6        7.922307   1.000000
    7       10.816359  -0.000000
    8       11.217089  -0.000000
    9       12.729651   0.000000
   10       16.015004   0.000000

  0.2000000E+00  0.1333333E+00  0.1333333E+00  0.7111111E-02
    1       -3.621003   1.000000
    2        2.326238   1.000000
    3        3.574071   1.000000
    4        4.395851   1.000000
    5        6.575096   1.000000
    6        7.655606   1.000000
    7       10.892654  -0.000000
    8       11.327078  -0.000000
    9       13.305085   0.000000
   10       15.759593   0.000000

  0.2666667E+00  0.1333333E+00  0.1333333E+00  0.7111111E-02
    1       -2.956667   1.000000
    2        1.415551   1.000000
    3        3.334430   1.000000
    4        4.301119   1.000000
    5        6.155049   1.000000
    6        8.110872   1.000000
    7       10.695333  -0.000000
    8       11.666968  -0.000000
    9       13.659365   0.000000
   10       15.978312   0.000000

  0.3333333E+00  0.1333333E+00  0.1333333E+00  0.7111111E-02
    1       -2.195041   1.000000
    2        0.475047   1.000000
    3        3.161088   1.000000
    4        4.242631   1.000000
    5        5.725279   1.000000
    6        8.684971   1.000000
    7       10.651966  -0.000000
    8       11.792485  -0.000000
    9       13.836841   0.000000
   10       16.346020   0.000000

  0.4000000E+00  0.1333333E+00  0.1333333E+00  0.7111111E-02
    1       -1.358332   1.000000
    2       -0.453945   1.000000
    3        3.069039   1.000000
    4        4.225062   1.000000
    5        5.474437   1.000000
    6        9.004115   1.000000
    7       10.851472  -0.000000
    8       11.667775  -0.000000
    9       13.937130   0.000000
   10       16.466799   0.000000

  0.2000000E+00  0.2000000E+00  0.1333333E+00  0.3555556E-02
    1       -3.023104   1.000000
    2        1.787921   1.000000
    3        2.929534   1.000000
    4        4.325595   1.000000
    5        6.762689   1.000000
    6        7.396526   1.000000
    7       10.584400  -0.000000
    8       11.807365  -0.000000
    9       14.106329   0.000000
   10       15.687362   0.000000

  0.2666667E+00  0.2000000E+00  0.1333333E+00  0.7111111E-02
    1       -2.314912   1.000000
    2        1.074571   1.000000
    3        2.475145   1.000000
    4        4.321938   1.000000
    5        6.165852   1.000000
    6        8.112292   1.000000
    7       10.276025  -0.000009
    8       12.007298  -0.000000
    9       14.711701   0.000000
   10       15.994577   0.000000
