   47   47    1    1
  0.2513960E+02  0.8645320E-09  0.6085000E-09  0.2593596E-08  0.5000000E-15
   1.0000000000000000E-004
  CAR 
 Name                                    
    177    149    114

  0.3742002E-15  0.3742002E-15  0.3742002E-15  0.3367003E-02
    1      -14.058128   1.000000
    2      -12.785494   1.000000
    3      -12.513282   1.000000
    4      -12.024908   1.000000
    5      -11.606808   1.000000
    6      -11.318404   1.000000
    7      -11.210620   1.000000
    8      -10.960816   1.000000
    9      -10.844034   1.000000
   10      -10.823884   1.000000
   11      -10.687510   1.000000
   12      -10.432925   1.000000
   13      -10.253409   1.000000
   14      -10.236802   1.000000
   15       -9.768080   1.000000
   16       -9.401841   1.000000
   17       -9.157623   1.000000
   18       -8.966402   1.000000
   19       -8.720862   1.000000
   20       -8.499748   1.000000
   21       -8.374778   1.000000
   22       -8.284517   1.000000
   23       -8.108575   1.000000
   24       -8.026199   1.000000
   25       -7.679127   1.000000
   26       -7.615618   1.000000
   27       -7.371362   1.000000
   28       -7.193073   1.000000
   29       -6.686349   1.000000
   30       -6.390657   1.000000
   31       -6.295428   1.000000
   32       -6.190717   1.000000
   33       -6.061483   1.000000
   34       -5.978826   1.000000
   35       -5.888155   1.000000
   36       -5.724999   1.000000
   37       -5.579051   1.000000
   38       -5.423341   1.000000
   39       -5.330470   1.000000
   40       -5.219280   1.000000
   41       -5.113589   1.000000
   42       -5.013403   1.000000
   43       -4.957851   1.000000
   44       -4.894844   1.000000
   45       -4.829579   1.000000
   46       -4.741540   1.000000
   47       -4.646833   1.000000
   48       -4.517031   1.000000
   49       -4.425733   1.000000
   50       -4.347122   1.000000
   51       -4.304277   1.000000
   52       -4.245642   1.000000
   53       -4.049277   1.000000
   54       -4.030486   1.000000
   55       -4.010886   1.000000
   56       -3.937450   1.000000
   57       -3.841122   1.000000
   58       -3.769529   1.000000
   59       -3.725188   1.000000
   60       -3.538533   1.000000
   61       -3.492266   1.000000
   62       -3.397653   1.000000
   63       -3.332632   1.000000
   64       -3.284147   1.000000
   65       -3.080133   1.000000
   66       -3.053059   1.000000
   67       -2.905547   1.000000
   68       -2.802640   1.000000
   69       -2.727947   1.000000
   70       -2.629852   1.000000
   71       -2.571205   1.000000
   72       -2.446882   1.000000
   73       -2.362141   1.000000
   74       -2.279390   1.000000
   75       -1.904923   1.000000
   76       -1.726551   1.000000
   77       -1.677278   1.000000
   78       -1.597448   1.000000
   79       -1.483637   1.000000
   80       -1.385972   1.000000
   81       -1.213379   1.000000
   82       -1.196284   1.000000
   83       -1.000934   1.000008
   84       -0.902767   1.000144
   85       -0.640425   1.022643
   86       -0.555141   1.035170
   87       -0.401799   0.820559
   88       -0.301813   0.429271
   89       -0.085987  -0.034820
   90       -0.007690  -0.025170
   91        0.011637  -0.020721
   92        0.093409  -0.006554
   93        0.171376  -0.001445
   94        0.296678  -0.000061
   95        0.375521  -0.000005
   96        0.432524  -0.000001
   97        0.439480  -0.000001
   98        0.557259  -0.000000
   99        0.567132  -0.000000
  100        0.683615  -0.000000
  101        0.738490  -0.000000
  102        0.908060  -0.000000
  103        0.932388  -0.000000
  104        1.079454  -0.000000
  105        1.091248  -0.000000
  106        1.138850  -0.000000
  107        1.168334  -0.000000
  108        1.192526  -0.000000
  109        1.286634  -0.000000
  110        1.443284  -0.000000
  111        1.499809  -0.000000
  112        1.664217  -0.000000
  113        1.869184  -0.000000
  114        3.702468  -0.000000

  0.1111111E+00  0.3729374E-15  0.3860503E-15  0.6734007E-02
    1      -14.034788   1.000000
    2      -12.791005   1.000000
    3      -12.598531   1.000000
    4      -11.959281   1.000000
    5      -11.590771   1.000000
    6      -11.314928   1.000000
    7      -11.252696   1.000000
    8      -10.970429   1.000000
    9      -10.842907   1.000000
   10      -10.816470   1.000000
   11      -10.678105   1.000000
   12      -10.432193   1.000000
   13      -10.239375   1.000000
   14      -10.202332   1.000000
   15       -9.758343   1.000000
   16       -9.416442   1.000000
   17       -9.155741   1.000000
   18       -8.970018   1.000000
   19       -8.718974   1.000000
   20       -8.544907   1.000000
   21       -8.422309   1.000000
   22       -8.293937   1.000000
   23       -8.127528   1.000000
   24       -7.961233   1.000000
   25       -7.676036   1.000000
   26       -7.631738   1.000000
   27       -7.449625   1.000000
   28       -7.220703   1.000000
   29       -6.631625   1.000000
   30       -6.350685   1.000000
   31       -6.258088   1.000000
   32       -6.167743   1.000000
   33       -6.055485   1.000000
   34       -5.964221   1.000000
   35       -5.857235   1.000000
   36       -5.726478   1.000000
   37       -5.598923   1.000000
   38       -5.416840   1.000000
   39       -5.331241   1.000000
   40       -5.234676   1.000000
   41       -5.078945   1.000000
   42       -5.034261   1.000000
   43       -4.953029   1.000000
   44       -4.858292   1.000000
   45       -4.814233   1.000000
   46       -4.731559   1.000000
   47       -4.643451   1.000000
   48       -4.531813   1.000000
   49       -4.407807   1.000000
   50       -4.370537   1.000000
   51       -4.283437   1.000000
   52       -4.225823   1.000000
   53       -4.051889   1.000000
   54       -4.037452   1.000000
   55       -4.000000   1.000000
   56       -3.954021   1.000000
   57       -3.832701   1.000000
   58       -3.786360   1.000000
   59       -3.713678   1.000000
   60       -3.593763   1.000000
   61       -3.487408   1.000000
   62       -3.400445   1.000000
   63       -3.381622   1.000000
   64       -3.300918   1.000000
   65       -3.056564   1.000000
   66       -3.026642   1.000000
   67       -2.891312   1.000000
   68       -2.808770   1.000000
   69       -2.734564   1.000000
   70       -2.665046   1.000000
   71       -2.593012   1.000000
   72       -2.423440   1.000000
   73       -2.351708   1.000000
   74       -2.273085   1.000000
   75       -1.975107   1.000000
   76       -1.733465   1.000000
   77       -1.667729   1.000000
   78       -1.597654   1.000000
   79       -1.440172   1.000000
   80       -1.352650   1.000000
   81       -1.241559   1.000000
   82       -1.170837   1.000000
   83       -1.033976   1.000003
   84       -0.904779   1.000137
   85       -0.632627   1.024447
   86       -0.535816   1.031910
   87       -0.418446   0.869692
   88       -0.285676   0.362786
   89       -0.100895  -0.032041
   90       -0.009022  -0.025477
   91        0.025996  -0.017559
   92        0.117804  -0.004252
   93        0.193353  -0.000883
   94        0.273030  -0.000118
   95        0.376447  -0.000005
   96        0.411691  -0.000002
   97        0.445334  -0.000000
   98        0.550397  -0.000000
   99        0.576690  -0.000000
  100        0.720473  -0.000000
  101        0.750948  -0.000000
  102        0.916876  -0.000000
  103        0.945357  -0.000000
  104        1.063480  -0.000000
  105        1.136330  -0.000000
  106        1.161772  -0.000000
  107        1.172776  -0.000000
  108        1.205587  -0.000000
  109        1.293518  -0.000000
  110        1.464223  -0.000000
  111        1.502134  -0.000000
  112        1.570110  -0.000000
  113        2.004658  -0.000000
  114        3.573267  -0.000000

  0.2222222E+00  0.3922785E-15  0.3630220E-15  0.6734007E-02
    1      -13.966986   1.000000
    2      -12.911224   1.000000
    3      -12.642108   1.000000
    4      -11.882848   1.000000
    5      -11.556499   1.000000
    6      -11.334574   1.000000
    7      -11.296014   1.000000
    8      -10.992054   1.000000
    9      -10.843814   1.000000
   10      -10.797982   1.000000
   11      -10.653304   1.000000
   12      -10.433451   1.000000
   13      -10.215360   1.000000
   14      -10.108720   1.000000
   15       -9.731948   1.000000
   16       -9.457383   1.000000
   17       -9.141840   1.000000
   18       -8.974894   1.000000
   19       -8.710289   1.000000
   20       -8.661386   1.000000
   21       -8.558059   1.000000
   22       -8.304222   1.000000
   23       -8.142418   1.000000
   24       -7.842239   1.000000
   25       -7.702466   1.000000
   26       -7.660580   1.000000
   27       -7.565807   1.000000
   28       -7.258026   1.000000
   29       -6.565348   1.000000
   30       -6.294944   1.000000
   31       -6.202883   1.000000
   32       -6.114586   1.000000
   33       -6.029240   1.000000
   34       -5.941266   1.000000
   35       -5.779281   1.000000
   36       -5.738107   1.000000
   37       -5.607242   1.000000
   38       -5.386134   1.000000
   39       -5.299652   1.000000
   40       -5.179002   1.000000
   41       -5.063937   1.000000
   42       -5.031811   1.000000
   43       -4.964777   1.000000
   44       -4.869283   1.000000
   45       -4.763691   1.000000
   46       -4.674773   1.000000
   47       -4.628489   1.000000
   48       -4.541182   1.000000
   49       -4.434976   1.000000
   50       -4.352001   1.000000
   51       -4.244467   1.000000
   52       -4.191858   1.000000
   53       -4.096160   1.000000
   54       -4.047161   1.000000
   55       -3.988371   1.000000
   56       -3.950341   1.000000
   57       -3.823676   1.000000
   58       -3.805889   1.000000
   59       -3.687832   1.000000
   60       -3.667393   1.000000
   61       -3.538885   1.000000
   62       -3.473180   1.000000
   63       -3.401558   1.000000
   64       -3.320733   1.000000
   65       -3.049202   1.000000
   66       -2.976394   1.000000
   67       -2.896021   1.000000
   68       -2.873469   1.000000
   69       -2.770909   1.000000
   70       -2.695552   1.000000
   71       -2.590697   1.000000
   72       -2.381400   1.000000
   73       -2.323142   1.000000
   74       -2.261764   1.000000
   75       -2.098459   1.000000
   76       -1.767779   1.000000
   77       -1.651523   1.000000
   78       -1.591019   1.000000
   79       -1.458920   1.000000
   80       -1.292222   1.000000
   81       -1.180263   1.000000
   82       -1.116960   1.000000
   83       -1.091502   1.000000
   84       -0.912542   1.000110
   85       -0.649888   1.020480
   86       -0.479884   0.991680
   87       -0.453699   0.951038
   88       -0.250392   0.229175
   89       -0.056025  -0.034400
   90       -0.043489  -0.032629
   91        0.086037  -0.007413
   92        0.103583  -0.005497
   93        0.213740  -0.000546
   94        0.229533  -0.000370
   95        0.325674  -0.000026
   96        0.455206  -0.000000
   97        0.469549  -0.000000
   98        0.582803  -0.000000
   99        0.592451  -0.000000
  100        0.714857  -0.000000
  101        0.794015  -0.000000
  102        0.970350  -0.000000
  103        0.988422  -0.000000
  104        1.055713  -0.000000
  105        1.152784  -0.000000
  106        1.191214  -0.000000
  107        1.233821  -0.000000
  108        1.257227  -0.000000
  109        1.330050  -0.000000
  110        1.395985  -0.000000
  111        1.502758  -0.000000
  112        1.619731  -0.000000
  113        1.872772  -0.000000
  114        3.836205  -0.000000

  0.3333333E+00  0.3713828E-15  0.3468587E-15  0.6734007E-02
    1      -13.864170   1.000000
    2      -13.120452   1.000000
    3      -12.581413   1.000000
    4      -11.896598   1.000000
    5      -11.528852   1.000000
    6      -11.354194   1.000000
    7      -11.284624   1.000000
    8      -11.013166   1.000000
    9      -10.847203   1.000000
   10      -10.777280   1.000000
   11      -10.623877   1.000000
   12      -10.448199   1.000000
   13      -10.190528   1.000000
   14       -9.981776   1.000000
   15       -9.697061   1.000000
   16       -9.515207   1.000000
   17       -9.113315   1.000000
   18       -8.983956   1.000000
   19       -8.833290   1.000000
   20       -8.738373   1.000000
   21       -8.611186   1.000000
   22       -8.313697   1.000000
   23       -8.156282   1.000000
   24       -7.944449   1.000000
   25       -7.688404   1.000000
   26       -7.661233   1.000000
   27       -7.501670   1.000000
   28       -7.255195   1.000000
   29       -6.573920   1.000000
   30       -6.400776   1.000000
   31       -6.233374   1.000000
   32       -6.016557   1.000000
   33       -5.961567   1.000000
   34       -5.894743   1.000000
   35       -5.717980   1.000000
   36       -5.666954   1.000000
   37       -5.488612   1.000000
   38       -5.342167   1.000000
   39       -5.258259   1.000000
   40       -5.196495   1.000000
   41       -5.078594   1.000000
   42       -5.032214   1.000000
   43       -4.937057   1.000000
   44       -4.848767   1.000000
   45       -4.737149   1.000000
   46       -4.616998   1.000000
   47       -4.591424   1.000000
   48       -4.529919   1.000000
   49       -4.422455   1.000000
   50       -4.346792   1.000000
   51       -4.248887   1.000000
   52       -4.192360   1.000000
   53       -4.139258   1.000000
   54       -4.067991   1.000000
   55       -3.974216   1.000000
   56       -3.909897   1.000000
   57       -3.855904   1.000000
   58       -3.769902   1.000000
   59       -3.693050   1.000000
   60       -3.672870   1.000000
   61       -3.649576   1.000000
   62       -3.485241   1.000000
   63       -3.406721   1.000000
   64       -3.305363   1.000000
   65       -3.128106   1.000000
   66       -3.047408   1.000000
   67       -3.008912   1.000000
   68       -2.880335   1.000000
   69       -2.779254   1.000000
   70       -2.663826   1.000000
   71       -2.576519   1.000000
   72       -2.445907   1.000000
   73       -2.268296   1.000000
   74       -2.222953   1.000000
   75       -2.094346   1.000000
   76       -1.830860   1.000000
   77       -1.672541   1.000000
   78       -1.577093   1.000000
   79       -1.467145   1.000000
   80       -1.352954   1.000000
   81       -1.242453   1.000000
   82       -1.110016   1.000000
   83       -0.894644   1.000180
   84       -0.847015   1.000600
   85       -0.640229   1.022688
   86       -0.484841   0.997613
   87       -0.434293   0.910132
   88       -0.220027   0.133866
   89       -0.117161  -0.025854
   90       -0.048469  -0.033413
   91        0.007617  -0.021636
   92        0.165260  -0.001648
   93        0.202978  -0.000706
   94        0.295121  -0.000063
   95        0.311581  -0.000039
   96        0.428803  -0.000001
   97        0.500779  -0.000000
   98        0.641342  -0.000000
   99        0.693116  -0.000000
  100        0.742522  -0.000000
  101        0.789395  -0.000000
  102        1.008637  -0.000000
  103        1.030657  -0.000000
  104        1.068903  -0.000000
  105        1.132929  -0.000000
  106        1.237418  -0.000000
  107        1.256856  -0.000000
  108        1.339539  -0.000000
  109        1.388820  -0.000000
  110        1.442330  -0.000000
  111        1.502299  -0.000000
  112        1.560590  -0.000000
  113        1.584365  -0.000000
  114        1.949074  -0.000000

  0.4444444E+00  0.3870091E-15  0.3932070E-15  0.6734007E-02
    1      -13.761329   1.000000
    2      -13.286157   1.000000
    3      -12.518495   1.000000
    4      -11.957667   1.000000
    5      -11.504955   1.000000
    6      -11.346629   1.000000
    7      -11.275751   1.000000
    8      -11.025449   1.000000
    9      -10.849776   1.000000
   10      -10.763935   1.000000
   11      -10.603238   1.000000
   12      -10.468090   1.000000
   13      -10.169628   1.000000
   14       -9.870209   1.000000
   15       -9.669264   1.000000
   16       -9.571037   1.000000
   17       -9.077428   1.000000
   18       -9.027289   1.000000
   19       -8.900026   1.000000
   20       -8.869050   1.000000
   21       -8.520712   1.000000
   22       -8.313407   1.000000
   23       -8.216082   1.000000
   24       -8.061685   1.000000
   25       -7.701627   1.000000
   26       -7.646186   1.000000
   27       -7.367805   1.000000
   28       -7.193904   1.000000
   29       -6.664332   1.000000
   30       -6.560891   1.000000
   31       -6.229625   1.000000
   32       -5.980104   1.000000
   33       -5.935114   1.000000
   34       -5.794997   1.000000
   35       -5.620403   1.000000
   36       -5.558133   1.000000
   37       -5.453356   1.000000
   38       -5.375619   1.000000
   39       -5.248670   1.000000
   40       -5.191349   1.000000
   41       -5.079299   1.000000
   42       -5.047059   1.000000
   43       -4.938816   1.000000
   44       -4.761334   1.000000
   45       -4.742152   1.000000
   46       -4.628284   1.000000
   47       -4.516860   1.000000
   48       -4.466930   1.000000
   49       -4.408715   1.000000
   50       -4.363114   1.000000
   51       -4.319328   1.000000
   52       -4.225487   1.000000
   53       -4.145586   1.000000
   54       -4.076196   1.000000
   55       -3.929783   1.000000
   56       -3.904160   1.000000
   57       -3.870192   1.000000
   58       -3.755537   1.000000
   59       -3.716347   1.000000
   60       -3.661925   1.000000
   61       -3.629514   1.000000
   62       -3.488964   1.000000
   63       -3.389912   1.000000
   64       -3.302612   1.000000
   65       -3.272750   1.000000
   66       -3.110631   1.000000
   67       -3.093630   1.000000
   68       -2.876620   1.000000
   69       -2.771256   1.000000
   70       -2.645047   1.000000
   71       -2.596848   1.000000
   72       -2.513830   1.000000
   73       -2.213697   1.000000
   74       -2.152181   1.000000
   75       -2.054498   1.000000
   76       -1.876407   1.000000
   77       -1.704146   1.000000
   78       -1.579215   1.000000
   79       -1.455835   1.000000
   80       -1.420127   1.000000
   81       -1.316056   1.000000
   82       -1.091462   1.000000
   83       -0.807013   1.001494
   84       -0.738125   1.005758
   85       -0.595512   1.032321
   86       -0.440703   0.924691
   87       -0.396913   0.804907
   88       -0.245030   0.210842
   89       -0.189375   0.060374
   90       -0.078342  -0.035370
   91       -0.002801  -0.024040
   92        0.109262  -0.004969
   93        0.149113  -0.002310
   94        0.265641  -0.000144
   95        0.338378  -0.000017
   96        0.510741  -0.000000
   97        0.541679  -0.000000
   98        0.684531  -0.000000
   99        0.744797  -0.000000
  100        0.811576  -0.000000
  101        0.885275  -0.000000
  102        0.957193  -0.000000
  103        1.054653  -0.000000
  104        1.094767  -0.000000
  105        1.169404  -0.000000
  106        1.228077  -0.000000
  107        1.296738  -0.000000
  108        1.373333  -0.000000
  109        1.392128  -0.000000
  110        1.458954  -0.000000
  111        1.526208  -0.000000
  112        1.612466  -0.000000
  113        1.701493  -0.000000
  114        1.819382  -0.000000

  0.3742002E-15  0.9090909E-01  0.3596334E-15  0.6734007E-02
    1      -14.025777   1.000000
    2      -12.762838   1.000000
    3      -12.513387   1.000000
    4      -11.993112   1.000000
    5      -11.585058   1.000000
    6      -11.472910   1.000000
    7      -11.241867   1.000000
    8      -11.184360   1.000000
    9      -10.936896   1.000000
   10      -10.672842   1.000000
   11      -10.542236   1.000000
   12      -10.412018   1.000000
   13      -10.336370   1.000000
   14      -10.129060   1.000000
   15       -9.711766   1.000000
   16       -9.517027   1.000000
   17       -9.128726   1.000000
   18       -8.909109   1.000000
   19       -8.751862   1.000000
   20       -8.536490   1.000000
   21       -8.365488   1.000000
   22       -8.139186   1.000000
   23       -8.122071   1.000000
   24       -7.935479   1.000000
   25       -7.702118   1.000000
   26       -7.444971   1.000000
   27       -7.353496   1.000000
   28       -7.150149   1.000000
   29       -6.679593   1.000000
   30       -6.414529   1.000000
   31       -6.308239   1.000000
   32       -6.198090   1.000000
   33       -6.093825   1.000000
   34       -5.952200   1.000000
   35       -5.862047   1.000000
   36       -5.676696   1.000000
   37       -5.576865   1.000000
   38       -5.463320   1.000000
   39       -5.336044   1.000000
   40       -5.226634   1.000000
   41       -5.159001   1.000000
   42       -5.060906   1.000000
   43       -4.970354   1.000000
   44       -4.923210   1.000000
   45       -4.868160   1.000000
   46       -4.747987   1.000000
   47       -4.700378   1.000000
   48       -4.519855   1.000000
   49       -4.461806   1.000000
   50       -4.398030   1.000000
   51       -4.323597   1.000000
   52       -4.278624   1.000000
   53       -4.165345   1.000000
   54       -4.073004   1.000000
   55       -3.996743   1.000000
   56       -3.903037   1.000000
   57       -3.822956   1.000000
   58       -3.739166   1.000000
   59       -3.644947   1.000000
   60       -3.582164   1.000000
   61       -3.503371   1.000000
   62       -3.386158   1.000000
   63       -3.335084   1.000000
   64       -3.270507   1.000000
   65       -3.103708   1.000000
   66       -3.047048   1.000000
   67       -2.901414   1.000000
   68       -2.845845   1.000000
   69       -2.734727   1.000000
   70       -2.655491   1.000000
   71       -2.524676   1.000000
   72       -2.473121   1.000000
   73       -2.337768   1.000000
   74       -2.236638   1.000000
   75       -1.955605   1.000000
   76       -1.750874   1.000000
   77       -1.680089   1.000000
   78       -1.608300   1.000000
   79       -1.524584   1.000000
   80       -1.384708   1.000000
   81       -1.218890   1.000000
   82       -1.160649   1.000000
   83       -1.003868   1.000007
   84       -0.894354   1.000181
   85       -0.741304   1.005446
   86       -0.562640   1.035455
   87       -0.472969   0.982499
   88       -0.309717   0.462482
   89       -0.207074   0.099922
   90       -0.086209  -0.034796
   91       -0.007377  -0.025098
   92        0.092285  -0.006680
   93        0.169883  -0.001492
   94        0.252453  -0.000205
   95        0.412593  -0.000002
   96        0.466861  -0.000000
   97        0.524280  -0.000000
   98        0.580884  -0.000000
   99        0.641243  -0.000000
  100        0.700152  -0.000000
  101        0.744650  -0.000000
  102        0.902753  -0.000000
  103        0.946576  -0.000000
  104        1.056950  -0.000000
  105        1.123124  -0.000000
  106        1.154928  -0.000000
  107        1.188092  -0.000000
  108        1.208929  -0.000000
  109        1.304000  -0.000000
  110        1.392627  -0.000000
  111        1.482963  -0.000000
  112        1.529385  -0.000000
  113        1.698833  -0.000000
  114        1.998487  -0.000000

  0.1111111E+00  0.9090909E-01  0.4822234E-15  0.6734007E-02
    1      -13.983904   1.000000
    2      -12.796416   1.000000
    3      -12.615643   1.000000
    4      -11.904014   1.000000
    5      -11.560773   1.000000
    6      -11.481872   1.000000
    7      -11.293727   1.000000
    8      -11.195656   1.000000
    9      -10.907645   1.000000
   10      -10.670287   1.000000
   11      -10.528700   1.000000
   12      -10.417004   1.000000
   13      -10.296155   1.000000
   14      -10.116895   1.000000
   15       -9.684640   1.000000
   16       -9.531520   1.000000
   17       -9.138357   1.000000
   18       -8.897860   1.000000
   19       -8.767678   1.000000
   20       -8.582126   1.000000
   21       -8.417319   1.000000
   22       -8.227620   1.000000
   23       -8.098630   1.000000
   24       -7.861792   1.000000
   25       -7.719550   1.000000
   26       -7.528792   1.000000
   27       -7.390370   1.000000
   28       -7.171857   1.000000
   29       -6.623232   1.000000
   30       -6.384048   1.000000
   31       -6.259880   1.000000
   32       -6.133627   1.000000
   33       -6.066313   1.000000
   34       -5.953286   1.000000
   35       -5.817442   1.000000
   36       -5.672992   1.000000
   37       -5.609575   1.000000
   38       -5.433609   1.000000
   39       -5.317408   1.000000
   40       -5.234812   1.000000
   41       -5.130202   1.000000
   42       -5.050000   1.000000
   43       -5.000102   1.000000
   44       -4.886720   1.000000
   45       -4.817513   1.000000
   46       -4.755889   1.000000
   47       -4.675647   1.000000
   48       -4.502976   1.000000
   49       -4.435302   1.000000
   50       -4.391317   1.000000
   51       -4.363571   1.000000
   52       -4.249892   1.000000
   53       -4.139750   1.000000
   54       -4.082776   1.000000
   55       -4.006218   1.000000
   56       -3.896278   1.000000
   57       -3.842954   1.000000
   58       -3.744490   1.000000
   59       -3.656376   1.000000
   60       -3.623472   1.000000
   61       -3.550436   1.000000
   62       -3.445513   1.000000
   63       -3.356301   1.000000
   64       -3.279047   1.000000
   65       -3.082422   1.000000
   66       -2.982420   1.000000
   67       -2.891662   1.000000
   68       -2.839468   1.000000
   69       -2.773323   1.000000
   70       -2.708061   1.000000
   71       -2.565234   1.000000
   72       -2.459538   1.000000
   73       -2.317468   1.000000
   74       -2.222067   1.000000
   75       -2.079292   1.000000
   76       -1.718134   1.000000
   77       -1.682437   1.000000
   78       -1.638553   1.000000
   79       -1.464663   1.000000
   80       -1.320748   1.000000
   81       -1.217273   1.000000
   82       -1.151093   1.000000
   83       -1.025969   1.000003
   84       -0.910555   1.000117
   85       -0.726689   1.006999
   86       -0.525015   1.028146
   87       -0.484047   0.996699
   88       -0.307617   0.453633
   89       -0.161957   0.014381
   90       -0.076475  -0.035426
   91       -0.024073  -0.028854
   92        0.087457  -0.007241
   93        0.191757  -0.000916
   94        0.248230  -0.000229
   95        0.385593  -0.000004
   96        0.464602  -0.000000
   97        0.520344  -0.000000
   98        0.598400  -0.000000
   99        0.663994  -0.000000
  100        0.711353  -0.000000
  101        0.791300  -0.000000
  102        0.897685  -0.000000
  103        0.989629  -0.000000
  104        1.082554  -0.000000
  105        1.131745  -0.000000
  106        1.158355  -0.000000
  107        1.209057  -0.000000
  108        1.245871  -0.000000
  109        1.317610  -0.000000
  110        1.359435  -0.000000
  111        1.481688  -0.000000
  112        1.556172  -0.000000
  113        1.648722  -0.000000
  114        1.896895  -0.000000

  0.2222222E+00  0.9090909E-01  0.3065600E-15  0.6734007E-02
    1      -13.900321   1.000000
    2      -12.973830   1.000000
    3      -12.599422   1.000000
    4      -11.860247   1.000000
    5      -11.542299   1.000000
    6      -11.486715   1.000000
    7      -11.333092   1.000000
    8      -11.212479   1.000000
    9      -10.848833   1.000000
   10      -10.661252   1.000000
   11      -10.519044   1.000000
   12      -10.428406   1.000000
   13      -10.245516   1.000000
   14      -10.087344   1.000000
   15       -9.640826   1.000000
   16       -9.536869   1.000000
   17       -9.178837   1.000000
   18       -8.877486   1.000000
   19       -8.823647   1.000000
   20       -8.611265   1.000000
   21       -8.477277   1.000000
   22       -8.350617   1.000000
   23       -8.097790   1.000000
   24       -7.868913   1.000000
   25       -7.709894   1.000000
   26       -7.577714   1.000000
   27       -7.371338   1.000000
   28       -7.203764   1.000000
   29       -6.597486   1.000000
   30       -6.373061   1.000000
   31       -6.237125   1.000000
   32       -6.110995   1.000000
   33       -5.977474   1.000000
   34       -5.947150   1.000000
   35       -5.745903   1.000000
   36       -5.694132   1.000000
   37       -5.517548   1.000000
   38       -5.399382   1.000000
   39       -5.303875   1.000000
   40       -5.203135   1.000000
   41       -5.113848   1.000000
   42       -5.054632   1.000000
   43       -4.979573   1.000000
   44       -4.852202   1.000000
   45       -4.794968   1.000000
   46       -4.710952   1.000000
   47       -4.630941   1.000000
   48       -4.505084   1.000000
   49       -4.429155   1.000000
   50       -4.414050   1.000000
   51       -4.337535   1.000000
   52       -4.222042   1.000000
   53       -4.122747   1.000000
   54       -4.068963   1.000000
   55       -4.002663   1.000000
   56       -3.914521   1.000000
   57       -3.852775   1.000000
   58       -3.743362   1.000000
   59       -3.700377   1.000000
   60       -3.659438   1.000000
   61       -3.601801   1.000000
   62       -3.502313   1.000000
   63       -3.403174   1.000000
   64       -3.267259   1.000000
   65       -3.114173   1.000000
   66       -2.981014   1.000000
   67       -2.948264   1.000000
   68       -2.850602   1.000000
   69       -2.786729   1.000000
   70       -2.733632   1.000000
   71       -2.596841   1.000000
   72       -2.410013   1.000000
   73       -2.302384   1.000000
   74       -2.246782   1.000000
   75       -2.132722   1.000000
   76       -1.762569   1.000000
   77       -1.728217   1.000000
   78       -1.614952   1.000000
   79       -1.448780   1.000000
   80       -1.265001   1.000000
   81       -1.201921   1.000000
   82       -1.110076   1.000000
   83       -1.014955   1.000005
   84       -0.891897   1.000193
   85       -0.719658   1.007858
   86       -0.557108   1.035291
   87       -0.430251   0.900417
   88       -0.298913   0.417170
   89       -0.144387  -0.006055
   90       -0.033082  -0.030722