   23   23    1    1
  0.8833935E+01  0.6094211E-09  0.6094211E-09  0.6314310E-09  0.5000000E-15
   1.0000000000000000E-004
  CAR 
 Name                                    
     89    666     56

  0.3742002E-15  0.3742002E-15  0.3742002E-15  0.7513148E-03
    1       -6.116595   1.000000
    2       -3.897497   1.000000
    3       -3.139769   1.000000
    4       -2.728855   1.000000
    5       -2.549925   1.000000
    6       -2.331791   1.000000
    7       -2.316938   1.000000
    8       -1.934929   1.000000
    9       -1.878754   1.000000
   10       -1.637444   1.000000
   11       -1.593007   1.000000
   12       -0.323267   1.000000
   13        0.016984   1.000000
   14        0.113503   1.000000
   15        0.333293   1.000000
   16        1.839491   1.000000
   17        1.994934   1.000000
   18        2.118452   1.000000
   19        2.278697   1.000000
   20        2.635540   1.000000
   21        2.658411   1.000000
   22        3.056467   1.000000
   23        3.293397   1.000000
   24        3.613054   1.000000
   25        3.773020   1.000000
   26        3.888781   1.000000
   27        3.986096   1.000000
   28        4.148250   1.000000
   29        4.258660   1.000000
   30        4.272767   1.000000
   31        4.439829   1.000000
   32        4.468125   1.000000
   33        4.534973   1.000000
   34        4.754670   1.000000
   35        4.825608   1.000000
   36        5.036705   1.000000
   37        5.700747   1.000000
   38        6.195472   1.000000
   39        6.439392   1.000000
   40        6.792446   1.000000
   41        6.908024   1.000000
   42        7.104252   1.000000
   43        7.150715   1.000000
   44        7.788103   1.000000
   45        8.048715   1.000000
   46        8.136865   1.000000
   47        8.755110   0.000000
   48        9.332563   0.000000
   49        9.337267   0.000000
   50        9.338528   0.000000
   51        9.507510   0.000000
   52        9.558103   0.000000
   53        9.813645   0.000000
   54       10.138081   0.000000
   55       10.231092   0.000000
   56       10.248174   0.000000

  0.9090909E-01  0.3750204E-15  0.3742002E-15  0.1502630E-02
    1       -6.076953   1.000000
    2       -3.885658   1.000000
    3       -3.143141   1.000000
    4       -2.723954   1.000000
    5       -2.693289   1.000000
    6       -2.578994   1.000000
    7       -2.409452   1.000000
    8       -2.172259   1.000000
    9       -1.612154   1.000000
   10       -1.466548   1.000000
   11       -1.213841   1.000000
   12       -0.267577   1.000000
   13        0.008769   1.000000
   14        0.127636   1.000000
   15        0.370283   1.000000
   16        1.864557   1.000000
   17        2.020145   1.000000
   18        2.148975   1.000000
   19        2.294289   1.000000
   20        2.640244   1.000000
   21        2.656161   1.000000
   22        3.087829   1.000000
   23        3.143321   1.000000
   24        3.371013   1.000000
   25        3.729390   1.000000
   26        3.867683   1.000000
   27        3.989867   1.000000
   28        4.117728   1.000000
   29        4.203722   1.000000
   30        4.286374   1.000000
   31        4.328478   1.000000
   32        4.470952   1.000000
   33        4.681126   1.000000
   34        4.771000   1.000000
   35        4.882681   1.000000
   36        5.245068   1.000000
   37        5.586462   1.000000
   38        5.803199   1.000000
   39        6.011441   1.000000
   40        7.037798   1.000000
   41        7.185186   1.000000
   42        7.193113   1.000000
   43        7.324525   1.000000
   44        7.668944   1.000000
   45        8.079103   1.000000
   46        8.135206   1.106008
   47        8.766088   0.000000
   48        9.303162   0.000000
   49        9.308580   0.000000
   50        9.330330   0.000000
   51        9.491486   0.000000
   52        9.516146   0.000000
   53        9.778428   0.000000
   54       10.081338   0.000000
   55       10.142585   0.000000
   56       10.166030   0.000000

  0.1818182E+00  0.3817828E-15  0.3742002E-15  0.1502630E-02
    1       -5.958916   1.000000
    2       -3.850014   1.000000
    3       -3.239618   1.000000
    4       -3.163204   1.000000
    5       -2.733094   1.000000
    6       -2.618198   1.000000
    7       -2.570693   1.000000
    8       -2.411627   1.000000
    9       -1.220016   1.000000
   10       -1.154561   1.000000
   11       -0.601754   1.000000
   12       -0.102102   1.000000
   13       -0.063231   1.000000
   14        0.113516   1.000000
   15        0.586729   1.000000
   16        1.929481   1.000000
   17        2.083403   1.000000
   18        2.240793   1.000000
   19        2.295845   1.000000
   20        2.570055   1.000000
   21        2.641806   1.000000
   22        2.812663   1.000000
   23        2.952959   1.000000
   24        3.177990   1.000000
   25        3.655916   1.000000
   26        3.796110   1.000000
   27        3.903076   1.000000
   28        3.992417   1.000000
   29        4.103570   1.000000
   30        4.258958   1.000000
   31        4.312612   1.000000
   32        4.449280   1.000000
   33        4.689143   1.000000
   34        4.793507   1.000000
   35        5.125274   1.000000
   36        5.267741   1.000000
   37        5.411002   1.000000
   38        5.490088   1.000000
   39        5.641066   1.000000
   40        6.844244   1.000000
   41        7.301264   1.000000
   42        7.328259   1.000000
   43        7.584068   1.000000
   44        7.901454   1.000000
   45        8.144668   0.891029
   46        8.291007   0.086060
   47        8.797379   0.000000
   48        9.164311   0.000000
   49        9.192702   0.000000
   50        9.311721   0.000000
   51        9.321617   0.000000
   52        9.455500   0.000000
   53        9.681808   0.000000
   54        9.911628   0.000000
   55       10.061446   0.000000
   56       10.167163   0.000000

  0.2727273E+00  0.3915453E-15  0.3742002E-15  0.1502630E-02
    1       -5.765275   1.000000
    2       -3.790446   1.000000
    3       -3.777307   1.000000
    4       -3.224187   1.000000
    5       -2.776359   1.000000
    6       -2.714805   1.000000
    7       -2.599585   1.000000
    8       -2.588032   1.000000
    9       -0.794846   1.000000
   10       -0.771092   1.000000
   11       -0.168627   1.000000
   12        0.026962   1.000000
   13        0.048113   1.000000
   14        0.178045   1.000000
   15        0.985282   1.000000
   16        2.009428   1.000000
   17        2.130712   1.000000
   18        2.155786   1.000000
   19        2.186067   1.000000
   20        2.296362   1.000000
   21        2.396897   1.000000
   22        2.680142   1.000000
   23        2.967014   1.000000
   24        3.256385   1.000000
   25        3.303817   1.000000
   26        3.644910   1.000000
   27        3.934334   1.000000
   28        3.948858   1.000000
   29        3.977101   1.000000
   30        4.173604   1.000000
   31        4.264156   1.000000
   32        4.472042   1.000000
   33        4.579602   1.000000
   34        4.683605   1.000000
   35        4.832713   1.000000
   36        5.084579   1.000000
   37        5.121814   1.000000
   38        5.724558   1.000000
   39        6.005511   1.000000
   40        6.665633   1.000000
   41        6.909231   1.000000
   42        7.452472   1.000000
   43        7.629396   1.000000
   44        8.058428   1.000000
   45        8.614961  -0.108200
   46        8.694546   0.000000
   47        8.813766   0.000000
   48        8.843564   0.000000
   49        8.873560   0.000000
   50        9.091424   0.000000
   51        9.278427   0.000000
   52        9.397451   0.000000
   53        9.551798   0.000000
   54        9.696894   0.000000
   55       10.003790   0.000000
   56       10.097845   0.000000

  0.3636364E+00  0.3774911E-15  0.3742002E-15  0.1502630E-02
    1       -5.501797   1.000000
    2       -4.275847   1.000000
    3       -3.707926   1.000000
    4       -3.331364   1.000000
    5       -2.816617   1.000000
    6       -2.799261   1.000000
    7       -2.704692   1.000000
    8       -2.562113   1.000000
    9       -0.369026   1.000000
   10       -0.363033   1.000000
   11       -0.265928   1.000000
   12       -0.018527   1.000000
   13        0.483654   1.000000
   14        0.714699   1.000000
   15        1.493357   1.000000
   16        1.697844   1.000000
   17        1.744161   1.000000
   18        1.859284   1.000000
   19        2.078178   1.000000
   20        2.212363   1.000000
   21        2.518238   1.000000
   22        2.617889   1.000000
   23        3.003774   1.000000
   24        3.135935   1.000000
   25        3.222964   1.000000
   26        3.447232   1.000000
   27        3.797274   1.000000
   28        3.820855   1.000000
   29        3.967943   1.000000
   30        4.069086   1.000000
   31        4.268138   1.000000
   32        4.270114   1.000000
   33        4.523460   1.000000
   34        4.698318   1.000000
   35        4.747093   1.000000
   36        4.901209   1.000000
   37        5.003065   1.000000
   38        5.937140   1.000000
   39        6.271158   1.000000
   40        6.509987   1.000000
   41        6.822371   1.000000
   42        7.526840   1.000000
   43        7.592034   1.000000
   44        8.073674   1.000000
   45        8.348014   0.137045
   46        8.405756  -0.021773
   47        8.889815   0.000000
   48        8.955230   0.000000
   49        9.124282   0.000000
   50        9.168777   0.000000
   51        9.222194   0.000000
   52        9.339382   0.000000
   53        9.376761   0.000000
   54        9.586749   0.000000
   55        9.671642   0.000000
   56       10.124656   0.000000

  0.4545455E+00  0.3770561E-15  0.3742002E-15  0.1502630E-02
    1       -5.190400   1.000000
    2       -4.706036   1.000000
    3       -3.610859   1.000000
    4       -3.450999   1.000000
    5       -2.868681   1.000000
    6       -2.802654   1.000000
    7       -2.762818   1.000000
    8       -2.536603   1.000000
    9       -0.323744   1.000000
   10       -0.058595   1.000000
   11       -0.048483   1.000000
   12       -0.018767   1.000000
   13        0.868415   1.000000
   14        1.299443   1.000000
   15        1.340681   1.000000
   16        1.382797   1.000000
   17        1.476971   1.000000
   18        1.986758   1.000000
   19        2.041347   1.000000
   20        2.143874   1.000000
   21        2.242004   1.000000
   22        2.687703   1.000000
   23        2.892540   1.000000
   24        3.097507   1.000000
   25        3.219243   1.000000
   26        3.285592   1.000000
   27        3.697754   1.000000
   28        3.778969   1.000000
   29        3.855291   1.000000
   30        4.140484   1.000000
   31        4.202401   1.000000
   32        4.273648   1.000000
   33        4.459297   1.000000
   34        4.587510   1.000000
   35        4.714260   1.000000
   36        4.950103   1.000000
   37        5.036642   1.000000
   38        5.821897   1.000000
   39        6.246180   1.000000
   40        6.607263   1.000000
   41        7.180428   1.000000
   42        7.438545   1.000000
   43        7.671647   1.000000
   44        7.888796   1.000000
   45        8.062105   1.039159
   46        8.079846   1.062681
   47        8.875354   0.000000
   48        8.909302   0.000000
   49        9.186163   0.000000
   50        9.242439   0.000000
   51        9.324721   0.000000
   52        9.403806   0.000000
   53        9.450546   0.000000
   54        9.522196   0.000000
   55        9.579822   0.000000
   56        9.826416   0.000000

  0.3742034E-15  0.9090909E-01  0.3742002E-15  0.1502630E-02
    1       -6.076953   1.000000
    2       -3.885658   1.000000
    3       -3.143140   1.000000
    4       -2.723959   1.000000
    5       -2.693285   1.000000
    6       -2.578991   1.000000
    7       -2.409453   1.000000
    8       -2.172265   1.000000
    9       -1.612156   1.000000
   10       -1.466536   1.000000
   11       -1.213847   1.000000
   12       -0.267577   1.000000
   13        0.008766   1.000000
   14        0.127643   1.000000
   15        0.370279   1.000000
   16        1.864557   1.000000
   17        2.020145   1.000000
   18        2.148975   1.000000
   19        2.294289   1.000000
   20        2.640237   1.000000
   21        2.656167   1.000000
   22        3.087828   1.000000
   23        3.143322   1.000000
   24        3.371021   1.000000
   25        3.729376   1.000000
   26        3.867680   1.000000
   27        3.989870   1.000000
   28        4.117725   1.000000
   29        4.203721   1.000000
   30        4.286376   1.000000
   31        4.328486   1.000000
   32        4.470950   1.000000
   33        4.681131   1.000000
   34        4.770998   1.000000
   35        4.882682   1.000000
   36        5.245067   1.000000
   37        5.586462   1.000000
   38        5.803201   1.000000
   39        6.011440   1.000000
   40        7.037804   1.000000
   41        7.185179   1.000000
   42        7.193113   1.000000
   43        7.324526   1.000000
   44        7.668945   1.000000
   45        8.079092   1.000000
   46        8.135213   1.105995
   47        8.766088   0.000000
   48        9.303175   0.000000
   49        9.308577   0.000000
   50        9.330326   0.000000
   51        9.491615   0.000000
   52        9.516141   0.000000
   53        9.779043   0.000000
   54       10.063621   0.000000
   55       10.145169   0.000000
   56       10.263080   0.000000

  0.9090909E-01  0.9090909E-01  0.3742002E-15  0.1502630E-02
    1       -5.997898   1.000000
    2       -3.861599   1.000000
    3       -3.151077   1.000000
    4       -3.020137   1.000000
    5       -2.782512   1.000000
    6       -2.685175   1.000000
    7       -2.660434   1.000000
    8       -2.019220   1.000000
    9       -1.666940   1.000000
   10       -0.974687   1.000000
   11       -0.855921   1.000000
   12       -0.157275   1.000000
   13       -0.099016   1.000000
   14        0.222042   1.000000
   15        0.477385   1.000000
   16        1.894960   1.000000
   17        2.053665   1.000000
   18        2.228751   1.000000
   19        2.303020   1.000000
   20        2.570324   1.000000
   21        2.618740   1.000000
   22        2.867683   1.000000
   23        3.152127   1.000000
   24        3.294161   1.000000
   25        3.574241   1.000000
   26        3.811100   1.000000
   27        3.965703   1.000000
   28        4.015658   1.000000
   29        4.046869   1.000000
   30        4.275311   1.000000
   31        4.307046   1.000000
   32        4.583727   1.000000
   33        4.696466   1.000000
   34        4.883603   1.000000
   35        4.890851   1.000000
   36        5.345639   1.000000
   37        5.376841   1.000000
   38        5.617276   1.000000
   39        5.659437   1.000000
   40        6.918388   1.000000
   41        7.257949   1.000000
   42        7.424067   1.000000
   43        7.552469   1.000000
   44        7.711133   1.000000
   45        8.063268   1.015747
   46        8.289568   0.214837
   47        8.786635   0.000000
   48        9.238378   0.000000
   49        9.247397   0.000000
   50        9.323687   0.000000
   51        9.370691   0.000000
   52        9.459765   0.000000
   53        9.641467   0.000000
   54       10.008007   0.000000
   55       10.109805   0.000000
   56       10.327321   0.000000

  0.1818182E+00  0.9090909E-01  0.3742002E-15  0.1502630E-02
    1       -5.841810   1.000000
    2       -3.813990   1.000000
    3       -3.505493   1.000000
    4       -3.178994   1.000000
    5       -3.050808   1.000000
    6       -2.809576   1.000000
    7       -2.577274   1.000000
    8       -2.065783   1.000000
    9       -1.390407   1.000000
   10       -0.560121   1.000000
   11       -0.284465   1.000000
   12       -0.265842   1.000000
   13        0.060585   1.000000
   14        0.291240   1.000000
   15        0.772373   1.000000
   16        1.957313   1.000000
   17        2.117607   1.000000
   18        2.118921   1.000000
   19        2.291666   1.000000
   20        2.359496   1.000000
   21        2.495925   1.000000
   22        2.855796   1.000000
   23        3.008778   1.000000
   24        3.257049   1.000000
   25        3.462877   1.000000
   26        3.657508   1.000000
   27        3.720291   1.000000
   28        3.957418   1.000000
   29        3.970622   1.000000
   30        4.226175   1.000000
   31        4.310844   1.000000
   32        4.532219   1.000000
   33        4.753502   1.000000
   34        4.845260   1.000000
   35        4.887676   1.000000
   36        5.071718   1.000000
   37        5.249837   1.000000
   38        5.283949   1.000000
   39        6.052944   1.000000
   40        6.728183   1.000000
   41        7.045828   1.000000
   42        7.388519   1.000000
   43        7.749194   1.000000
   44        8.002518   1.000000
   45        8.213287   0.508128
   46        8.702120   0.000000
   47        8.824234   0.000000
   48        8.983835   0.000000
   49        9.080728   0.000000
   50        9.131283   0.000000
   51        9.305338   0.000000
   52        9.391445   0.000000
   53        9.486157   0.000000
   54        9.877087   0.000000
   55        9.929116   0.000000
   56       10.194391   0.000000

  0.2727273E+00  0.9090909E-01  0.3742002E-15  0.1502630E-02
    1       -5.612627   1.000000
    2       -4.014620   1.000000
    3       -3.743222   1.000000
    4       -3.254730   1.000000
    5       -3.209600   1.000000
    6       -2.894837   1.000000
    7       -2.487191   1.000000
    8       -2.179661   1.000000
    9       -0.958565   1.000000
   10       -0.468020   1.000000
   11       -0.165579   1.000000
   12        0.300678   1.000000
   13        0.314869   1.000000
   14        0.429407   1.000000
   15        1.221063   1.000000
   16        1.576104   1.000000
   17        2.025171   1.000000
   18        2.028946   1.000000
   19        2.195179   1.000000
   20        2.394889   1.000000
   21        2.519450   1.000000
   22        2.537918   1.000000
   23        3.026785   1.000000
   24        3.167071   1.000000
   25        3.286530   1.000000
   26        3.560468   1.000000
   27        3.727965   1.000000
   28        3.814335   1.000000
   29        3.852977   1.000000
   30        4.088673   1.000000
   31        4.306277   1.000000
   32        4.458106   1.000000
   33        4.513218   1.000000
   34        4.800296   1.000000
   35        4.864885   1.000000
   36        4.919197   1.000000
   37        4.927750   1.000000
   38        5.658821   1.000000
   39        6.356510   1.000000
   40        6.631610   1.000000
   41        6.702212   1.000000
   42        7.544270   1.000000
   43        7.650897   1.000000
   44        8.061488   1.000000
   45        8.584277  -0.045787
   46        8.658723  -0.000408
   47        8.681870   0.000000
   48        8.871953   0.000000
   49        8.973410   0.000000
   50        9.225728   0.000000
   51        9.269992   0.000000
   52        9.303889   0.000000
   53        9.393115   0.000000
   54        9.715143   0.000000
   55        9.776473   0.000000
   56        9.855956   0.000000

  0.3636364E+00  0.9090909E-01  0.3742002E-15  0.1502630E-02
    1       -5.319656   1.000000
    2       -4.481910   1.000000
    3       -3.652299   1.000000
    4       -3.374521   1.000000
    5       -3.300941   1.000000
    6       -2.924241   1.000000
    7       -2.414014   1.000000
    8       -2.256080   1.000000
    9       -0.601245   1.000000
   10       -0.522046   1.000000
   11        0.190216   1.000000
   12        0.291309   1.000000
   13        0.716688   1.000000
   14        1.035741   1.000000
   15        1.071591   1.000000
   16        1.648369   1.000000
   17        1.756446   1.000000
   18        1.987585   1.000000
   19        2.070256   1.000000
   20        2.239752   1.000000
   21        2.267038   1.000000
   22        2.755518   1.000000
   23        2.835776   1.000000
   24        2.908328   1.000000
   25        3.352720   1.000000
   26        3.364511   1.000000
   27        3.753184   1.000000
   28        3.761007   1.000000
   29        3.841618   1.000000
   30        3.993229   1.000000
   31        4.243985   1.000000
   32        4.254211   1.000000
   33        4.534718   1.000000
   34        4.579014   1.000000
   35        4.776002   1.000000
   36        4.981029   1.000000
   37        5.007223   1.000000
   38        5.801860   1.000000
   39        6.284280   1.000000
   40        6.437981   1.000000
   41        7.098721   1.000000
   42        7.523142   1.000000
   43        7.681967   1.000000
   44        8.084750   1.000000
   45        8.141898   0.784537
   46        8.241010   0.246869
   47        8.826468   0.000000
   48        8.931638   0.000000
   49        9.083870   0.000000
   50        9.213872   0.000000
   51        9.219648   0.000000
   52        9.321025   0.000000
   53        9.417301   0.000000
   54        9.655957   0.000000
   55        9.660137   0.000000
   56        9.745858   0.000000

  0.4545455E+00  0.9090909E-01  0.3742002E-15  0.1502630E-02
    1       -5.063124   1.000000
    2       -4.797062   1.000000
    3       -3.574420   1.000000
    4       -3.471291   1.000000
    5       -3.330313   1.000000
    6       -2.926087   1.000000
    7       -2.383452   1.000000
    8       -2.283343   1.000000
    9       -0.647295   1.000000
   10       -0.284853   1.000000
   11        0.285053   1.000000
   12        0.357783   1.000000
   13        0.796694   1.000000
   14        1.038717   1.000000
   15        1.333223   1.000000
   16        1.603238   1.000000
   17        1.696313   1.000000
   18        1.838847   1.000000
   19        2.071941   1.000000
   20        2.263687   1.000000
   21        2.325158   1.000000
   22        2.372916   1.000000
   23        2.842622   1.000000
   24        3.017536   1.000000
   25        3.112552   1.000000
   26        3.502830   1.000000
   27        3.606543   1.000000
   28        3.743848   1.000000
   29        3.897039   1.000000
   30        4.089698   1.000000
   31        4.166135   1.000000
   32        4.188903   1.000000
   33        4.375531   1.000000
   34        4.666097   1.000000
   35        4.694009   1.000000
   36        5.060919   1.000000
   37        5.079771   1.000000
   38        5.784183   1.000000
   39        6.133520   1.000000
   40        6.533860   1.000000
   41        7.413955   1.000000
   42        7.461082   1.000000
   43        7.712882   1.000000
   44        7.847329   1.000000
   45        8.054020   1.000000
   46        8.093696   1.089504
   47        8.777872   0.000000
   48        8.949353   0.000000
   49        9.167764   0.000000
   50        9.219527   0.000000
   51        9.237434   0.000000
   52        9.279791   0.000000
   53        9.337947   0.000000
   54        9.571407   0.000000
   55        9.734341   0.000000
   56        9.833845   0.000000

 -0.4545455E+00  0.9090909E-01  0.3742002E-15  0.1502630E-02
    1       -5.321390   1.000000
    2       -4.479666   1.000000
    3       -3.649899   1.000000
    4       -3.389768   1.000000
    5       -3.298618   1.000000
    6       -2.916934   1.000000
    7       -2.404404   1.000000
    8       -2.259732   1.000000
    9       -0.593151   1.000000
   10       -0.525692   1.000000
   11        0.184071   1.000000
   12        0.290627   1.000000
   13        0.715108   1.000000
   14        0.994745   1.000000
   15        1.141348   1.000000
   16        1.663161   1.000000
   17        1.692046   1.000000
   18        1.956979   1.000000
   19        2.102678   1.000000
   20        2.273116   1.000000
   21        2.289973   1.000000
   22        2.745442   1.000000
   23        2.814415   1.000000
   24        2.928389   1.000000
   25        3.284422   1.000000
   26        3.377911   1.000000
   27        3.723582   1.000000
   28        3.779486   1.000000
   29        3.816906   1.000000
   30        4.069177   1.000000
   31        4.170633   1.000000
   32        4.216277   1.000000
   33        4.565349   1.000000
   34        4.589569   1.000000
   35        4.752440   1.000000
   36        5.040169   1.000000
   37        5.048770   1.000000
   38        5.876934   1.000000
   39        6.283997   1.000000
   40        6.390559   1.000000
   41        7.007368   1.000000
   42        7.496555   1.000000
   43        7.741432   1.000000
   44        8.091507   1.000000
   45        8.162405   0.731052
   46        8.230691   0.300695
   47        8.817170   0.000000
   48        8.947219   0.000000
   49        9.116793   0.000000
   50        9.189298   0.000000
   51        9.271503   0.000000
   52        9.339360   0.000000
   53        9.377736   0.000000
   54        9.629190   0.000000
   55        9.714171   0.000000
   56        9.782656   0.000000

 -0.3636364E+00  0.9090909E-01  0.3742002E-15  0.1502630E-02
    1       -5.614116   1.000000
    2       -4.012002   1.000000
    3       -3.743409   1.000000
    4       -3.275045   1.000000
    5       -3.205164   1.000000
    6       -2.894621   1.000000
    7       -2.457347   1.000000
    8       -2.187461   1.000000
    9       -0.959944   1.000000
   10       -0.458369   1.000000
   11       -0.176579   1.000000
   12        0.302862   1.000000
   13        0.311893   1.000000
   14        0.439670   1.000000
   15        1.163889   1.000000
   16        1.618863   1.000000
   17        2.042890   1.000000
   18        2.068412   1.000000
   19        2.234182   1.000000
   20        2.334887   1.000000
   21        2.489501   1.000000
   22        2.648986   1.000000
   23        2.912171   1.000000
   24        3.083499   1.000000
   25        3.358794   1.000000
   26        3.461702   1.000000
   27        3.701161   1.000000
   28        3.823897   1.000000
   29        3.935224   1.000000
   30        4.110702   1.000000
   31        4.287471   1.000000
   32        4.349215   1.000000
   33        4.502651   1.000000
   34        4.756931   1.000000
   35        4.883052   1.000000
   36        4.976232   1.000000
   37        5.055711   1.000000
   38        5.888707   1.000000
   39        6.188875   1.000000
   40        6.598126   1.000000
   41        6.641397   1.000000
   42        7.594013   1.000000
   43        7.602290   1.000000
   44        8.074615   1.000000
   45        8.591286  -0.031355
   46        8.663509  -0.001249
   47        8.724352   0.000000
   48        8.870255   0.000000
   49        8.993842   0.000000
   50        9.186351   0.000000
   51        9.235251   0.000000
   52        9.372875   0.000000
   53        9.424083   0.000000
   54        9.570673   0.000000
   55        9.816128   0.000000
   56        9.962743   0.000000

 -0.2727273E+00  0.9090909E-01  0.3742002E-15  0.1502630E-02
    1       -5.842931   1.000000
    2       -3.815297   1.000000
    3       -3.502036   1.000000
    4       -3.191945   1.000000
    5       -3.045206   1.000000
    6       -2.851060   1.000000
    7       -2.507257   1.000000
    8       -2.079448   1.000000
    9       -1.386679   1.000000
   10       -0.577876   1.000000
   11       -0.280070   1.000000
   12       -0.253887   1.000000
   13        0.064371   1.000000
   14        0.293137   1.000000
   15        0.731552   1.000000
   16        2.012670   1.000000
   17        2.156388   1.000000
   18        2.182907   1.000000
   19        2.291583   1.000000
   20        2.301598   1.000000
   21        2.597401   1.000000
   22        2.724723   1.000000
   23        2.955660   1.000000
   24        3.251590   1.000000
   25        3.377464   1.000000
   26        3.636669   1.000000
   27        3.725947   1.000000
   28        3.907905   1.000000
   29        4.047153   1.000000
   30        4.214646   1.000000
   31        4.305491   1.000000
   32        4.521098   1.000000
   33        4.717352   1.000000
   34        4.787313   1.000000
   35        4.944256   1.000000
   36        5.148580   1.000000
   37        5.299742   1.000000
   38        5.516754   1.000000
   39        5.886458   1.000000
   40        6.660570   1.000000
   41        7.065441   1.000000
   42        7.414395   1.000000
   43        7.704568   1.000000
   44        8.009674   1.000000
   45        8.253508   0.321258
   46        8.668172   0.000000
   47        8.826552   0.000000
   48        8.980420   0.000000
   49        9.036735   0.000000
   50        9.209588   0.000000
   51        9.277745   0.000000
   52        9.438856   0.000000
   53        9.540332   0.000000
   54        9.754375   0.000000
   55        9.880918   0.000000
   56       10.241916   0.000000

 -0.1818182E+00  0.9090909E-01  0.3742002E-15  0.1502630E-02
    1       -5.998594   1.000000
    2       -3.862851   1.000000
    3       -3.153511   1.000000
    4       -3.011393   1.000000
    5       -2.801726   1.000000
    6       -2.782320   1.000000
    7       -2.526212   1.000000
    8       -2.036434   1.000000
    9       -1.657866   1.000000
   10       -1.010611   1.000000
   11       -0.823380   1.000000
   12       -0.156288   1.000000
   13       -0.096415   1.000000
   14        0.189418   1.000000
   15        0.486154   1.000000
   16        1.937675   1.000000
   17        2.086113   1.000000
   18        2.167901   1.000000
   19        2.346634   1.000000
   20        2.590639   1.000000
   21        2.632014   1.000000
   22        2.917201   1.000000
   23        3.138446   1.000000
   24        3.167858   1.000000
   25        3.446397   1.000000
   26        3.855644   1.000000
   27        3.921473   1.000000
   28        3.935723   1.000000
   29        4.166647   1.000000
   30        4.240512   1.000000
   31        4.335800   1.000000
   32        4.560249   1.000000
   33        4.693542   1.000000