   36   36    1    1
  0.8359552E+01  0.6080955E-09  0.6080955E-09  0.9404337E-09  0.5000000E-15
   1.0000000000000000E-004
  CAR 
 Name                                    
    138    666     90

  0.3742002E-15  0.3742002E-15  0.3742002E-15  0.7513148E-03
    1       -5.703104   1.000000
    2       -4.285291   1.000000
    3       -4.285195   1.000000
    4       -2.169545   1.000000
    5       -2.169509   1.000000
    6       -1.994781   1.000000
    7       -1.994745   1.000000
    8       -1.796417   1.000000
    9       -1.796380   1.000000
   10       -1.742337   1.000000
   11       -1.734946   1.000000
   12       -1.719986   1.000000
   13       -1.398335   1.000000
   14       -1.343264   1.000000
   15       -1.235213   1.000000
   16       -0.419057   1.000000
   17       -0.418950   1.000000
   18       -0.250672   1.000000
   19       -0.250571   1.000000
   20       -0.128732   1.000000
   21       -0.128634   1.000000
   22        1.234084   1.000000
   23        1.234089   1.000000
   24        2.840832   1.000000
   25        2.840863   1.000000
   26        3.047112   1.000000
   27        3.047140   1.000000
   28        3.336822   1.000000
   29        3.336851   1.000000
   30        3.809741   1.000000
   31        3.809800   1.000000
   32        3.864988   1.000000
   33        3.909412   1.000000
   34        3.993898   1.000000
   35        3.993968   1.000000
   36        4.212420   1.000000
   37        4.442783   1.000000
   38        4.442860   1.000000
   39        4.557716   1.000000
   40        4.586177   1.000000
   41        4.613114   1.000000
   42        4.637617   1.000000
   43        4.656223   1.000000
   44        4.656229   1.000000
   45        4.667433   1.000000
   46        4.710111   1.000000
   47        4.742951   1.000000
   48        4.742964   1.000000
   49        4.765318   1.000000
   50        4.828981   1.000000
   51        4.828989   1.000000
   52        4.876533   1.000000
   53        5.682044   1.000000
   54        5.899972   1.000000
   55        5.900090   1.000000
   56        6.088799   1.000000
   57        6.088915   1.000000
   58        6.097092   1.000000
   59        7.290886   1.000000
   60        7.290949   1.000000
   61        7.301587   1.000000
   62        7.301647   1.000000
   63        8.571810   1.000000
   64        8.578861   1.000000
   65        8.666913   1.000000
   66        8.666973   1.000000
   67        8.758717   1.000000
   68        9.235979  -0.060050
   69        9.271445  -0.062421
   70        9.299125   0.000000
   71        9.299193   0.000000
   72        9.326765   0.000000
   73        9.326834   0.000000
   74        9.564111   0.000000
   75        9.564188   0.000000
   76        9.587113   0.000000
   77        9.587127   0.000000
   78        9.592215   0.000000
   79        9.592249   0.000000
   80        9.977438   0.000000
   81       10.039480   0.000000
   82       10.125388   0.000000
   83       10.136791   0.000000
   84       10.137116   0.000000
   85       10.242769   0.000000
   86       10.267588   0.000000
   87       10.337890   0.000000
   88       10.436725   0.000000
   89       10.633633   0.000000
   90       10.659258   0.000000

  0.9090909E-01  0.3652229E-15  0.3742002E-15  0.1502630E-02
    1       -5.663064   1.000000
    2       -4.257511   1.000000
    3       -4.257415   1.000000
    4       -2.223945   1.000000
    5       -2.223905   1.000000
    6       -2.202368   1.000000
    7       -2.007375   1.000000
    8       -2.007337   1.000000
    9       -1.891279   1.000000
   10       -1.891237   1.000000
   11       -1.885262   1.000000
   12       -1.875657   1.000000
   13       -1.133863   1.000000
   14       -1.127205   1.000000
   15       -0.816000   1.000000
   16       -0.280201   1.000000
   17       -0.280100   1.000000
   18       -0.203722   1.000000
   19       -0.203624   1.000000
   20       -0.045843   1.000000
   21       -0.045751   1.000000
   22        1.271616   1.000000
   23        1.271621   1.000000
   24        2.821977   1.000000
   25        2.822010   1.000000
   26        2.987434   1.000000
   27        2.987465   1.000000
   28        3.329707   1.000000
   29        3.329740   1.000000
   30        3.718553   1.000000
   31        3.803505   1.000000
   32        3.803559   1.000000
   33        3.899744   1.000000
   34        4.002268   1.000000
   35        4.002333   1.000000
   36        4.043755   1.000000
   37        4.240718   1.000000
   38        4.357454   1.000000
   39        4.357507   1.000000
   40        4.477518   1.000000
   41        4.624729   1.000000
   42        4.628525   1.000000
   43        4.628528   1.000000
   44        4.637137   1.000000
   45        4.672609   1.000000
   46        4.763117   1.000000
   47        4.770793   1.000000
   48        4.770801   1.000000
   49        4.838007   1.000000
   50        4.857862   1.000000
   51        4.857878   1.000000
   52        5.330352   1.000000
   53        5.720066   1.000000
   54        5.720168   1.000000
   55        5.851929   1.000000
   56        5.949590   1.000000
   57        5.949685   1.000000
   58        6.019033   1.000000
   59        7.265494   1.000000
   60        7.265525   1.000000
   61        7.348098   1.000000
   62        7.348131   1.000000
   63        8.430440   1.000000
   64        8.462939   1.000000
   65        8.719584   1.000000
   66        8.738023   1.000000
   67        8.738079   1.000000
   68        9.230691  -0.050061
   69        9.359443  -0.023964
   70        9.359494   0.000000
   71        9.367664   0.000000
   72        9.450431   0.000000
   73        9.450499   0.000000
   74        9.551021   0.000000
   75        9.551264   0.000000
   76        9.605628   0.000000
   77        9.605910   0.000000
   78        9.618614   0.000000
   79        9.618995   0.000000
   80        9.947941   0.000000
   81        9.988659   0.000000
   82       10.086347   0.000000
   83       10.086548   0.000000
   84       10.104181   0.000000
   85       10.243975   0.000000
   86       10.256955   0.000000
   87       10.267165   0.000000
   88       10.570593   0.000000
   89       10.597654   0.000000
   90       11.361830   0.000000

  0.1818182E+00  0.3343467E-15  0.3742002E-15  0.1502630E-02
    1       -5.543638   1.000000
    2       -4.174995   1.000000
    3       -4.174901   1.000000
    4       -2.790739   1.000000
    5       -2.429008   1.000000
    6       -2.428955   1.000000
    7       -2.094303   1.000000
    8       -2.087900   1.000000
    9       -2.039052   1.000000
   10       -2.039008   1.000000
   11       -2.013766   1.000000
   12       -2.013720   1.000000
   13       -0.762758   1.000000
   14       -0.750852   1.000000
   15       -0.158036   1.000000
   16       -0.075928   1.000000
   17       -0.075838   1.000000
   18       -0.074165   1.000000
   19       -0.074076   1.000000
   20        0.288665   1.000000
   21        0.288747   1.000000
   22        1.383405   1.000000
   23        1.383411   1.000000
   24        2.735746   1.000000
   25        2.735784   1.000000
   26        2.820874   1.000000
   27        2.820913   1.000000
   28        3.278218   1.000000
   29        3.351225   1.000000
   30        3.351262   1.000000
   31        3.425244   1.000000
   32        3.745434   1.000000
   33        3.745472   1.000000
   34        4.002336   1.000000
   35        4.010991   1.000000
   36        4.011044   1.000000
   37        4.174736   1.000000
   38        4.191956   1.000000
   39        4.191986   1.000000
   40        4.321822   1.000000
   41        4.564090   1.000000
   42        4.564114   1.000000
   43        4.648705   1.000000
   44        4.657521   1.000000
   45        4.692289   1.000000
   46        4.782740   1.000000
   47        4.782747   1.000000
   48        4.850921   1.000000
   49        4.937689   1.000000
   50        4.986162   1.000000
   51        4.986205   1.000000
   52        5.241742   1.000000
   53        5.241820   1.000000
   54        5.661795   1.000000
   55        5.661856   1.000000
   56        5.815001   1.000000
   57        5.919824   1.000000
   58        6.234632   1.000000
   59        7.126173   1.000000
   60        7.126189   1.000000
   61        7.490768   1.000000
   62        7.490783   1.000000
   63        8.074536   1.000000
   64        8.121228   1.000000
   65        8.726156   1.000000
   66        8.832199   1.000000
   67        8.832259   1.000000
   68        9.194950  -0.009917
   69        9.484657   0.000000
   70        9.484765   0.000000
   71        9.590122   0.000000
   72        9.590248   0.000000
   73        9.647704   0.000000
   74        9.648345   0.000000
   75        9.657500   0.000000
   76        9.657598   0.000000
   77        9.663613   0.000000
   78        9.782910   0.000000
   79        9.784526   0.000000
   80        9.802943   0.000000
   81        9.810320   0.000000
   82        9.848400   0.000000
   83        9.849583   0.000000
   84       10.030377   0.000000
   85       10.220973   0.000000
   86       10.229235   0.000000
   87       10.255439   0.000000
   88       10.267704   0.000000
   89       10.463551   0.000000
   90       10.507609   0.000000

  0.2727273E+00  0.3725554E-15  0.3742002E-15  0.1502630E-02
    1       -5.346868   1.000000
    2       -4.040064   1.000000
    3       -4.039972   1.000000
    4       -3.350357   1.000000
    5       -2.737442   1.000000
    6       -2.737377   1.000000
    7       -2.262656   1.000000
    8       -2.257788   1.000000
    9       -2.076654   1.000000
   10       -2.076605   1.000000
   11       -2.075710   1.000000
   12       -2.075659   1.000000
   13       -0.337729   1.000000
   14       -0.323209   1.000000
   15        0.107687   1.000000
   16        0.107763   1.000000
   17        0.109554   1.000000
   18        0.109631   1.000000
   19        0.524641   1.000000
   20        0.800853   1.000000
   21        0.800924   1.000000
   22        1.565354   1.000000
   23        1.565361   1.000000
   24        2.564374   1.000000
   25        2.564422   1.000000
   26        2.583344   1.000000
   27        2.583392   1.000000
   28        2.750263   1.000000
   29        2.815951   1.000000
   30        3.453432   1.000000
   31        3.453471   1.000000
   32        3.535388   1.000000
   33        3.535409   1.000000
   34        3.726867   1.000000
   35        3.971533   1.000000
   36        3.971574   1.000000
   37        4.100963   1.000000
   38        4.100986   1.000000
   39        4.167538   1.000000
   40        4.441319   1.000000
   41        4.441381   1.000000
   42        4.443011   1.000000
   43        4.683403   1.000000
   44        4.703747   1.000000
   45        4.713146   1.000000
   46        4.713196   1.000000
   47        4.717475   1.000000
   48        4.803826   1.000000
   49        4.803850   1.000000
   50        4.973991   1.000000
   51        5.047075   1.000000
   52        5.185318   1.000000
   53        5.185373   1.000000
   54        5.328065   1.000000
   55        5.328100   1.000000
   56        5.541413   1.000000
   57        6.493489   1.000000
   58        6.681588   1.000000
   59        6.860410   1.000000
   60        6.860454   1.000000
   61        7.672797   1.000000
   62        7.710944   1.000000
   63        7.710993   1.000000
   64        7.716464   1.000000
   65        8.770543   1.000000
   66        8.876438   1.000000
   67        8.876499   1.000000
   68        9.138966   0.148946
   69        9.376879  -0.120127
   70        9.376944  -0.036758
   71        9.477000  -0.002004
   72        9.478048  -0.000636
   73        9.483805   0.000000
   74        9.483906   0.000000
   75        9.641298   0.000000
   76        9.641588   0.000000
   77        9.645081   0.000000
   78        9.646369   0.000000
   79        9.966131   0.000000
   80        9.967203   0.000000
   81        9.969722   0.000000
   82       10.098403   0.000000
   83       10.101251   0.000000
   84       10.212981   0.000000
   85       10.220224   0.000000
   86       10.265630   0.000000
   87       10.279618   0.000000
   88       10.343156   0.000000
   89       10.395635   0.000000
   90       10.457894   0.000000

  0.3636364E+00  0.3658134E-15  0.3742002E-15  0.1502630E-02
    1       -5.076009   1.000000
    2       -3.866240   1.000000
    3       -3.856206   1.000000
    4       -3.856117   1.000000
    5       -3.058732   1.000000
    6       -3.058659   1.000000
    7       -2.376795   1.000000
    8       -2.373626   1.000000
    9       -2.110515   1.000000
   10       -2.110461   1.000000
   11       -2.108183   1.000000
   12       -2.108130   1.000000
   13        0.104413   1.000000
   14        0.119304   1.000000
   15        0.292302   1.000000
   16        0.292365   1.000000
   17        0.295073   1.000000
   18        0.295136   1.000000
   19        1.208201   1.000000
   20        1.360337   1.000000
   21        1.360396   1.000000
   22        1.802758   1.000000
   23        1.802765   1.000000
   24        2.222917   1.000000
   25        2.253504   1.000000
   26        2.331916   1.000000
   27        2.331973   1.000000
   28        2.367679   1.000000
   29        2.367737   1.000000
   30        3.176917   1.000000
   31        3.219806   1.000000
   32        3.219825   1.000000
   33        3.624125   1.000000
   34        3.624166   1.000000
   35        3.710061   1.000000
   36        3.710128   1.000000
   37        4.113018   1.000000
   38        4.113033   1.000000
   39        4.125187   1.000000
   40        4.125226   1.000000
   41        4.386227   1.000000
   42        4.519690   1.000000
   43        4.519738   1.000000
   44        4.579342   1.000000
   45        4.719861   1.000000
   46        4.740183   1.000000
   47        4.745737   1.000000
   48        4.834717   1.000000
   49        4.834753   1.000000
   50        5.043016   1.000000
   51        5.043041   1.000000
   52        5.100614   1.000000
   53        5.148299   1.000000
   54        5.241294   1.000000
   55        5.448121   1.000000
   56        5.448183   1.000000
   57        6.511910   1.000000
   58        6.511968   1.000000
   59        7.026436   1.000000
   60        7.121828   1.000000
   61        7.340330   1.000000
   62        7.371718   1.000000
   63        7.994051   1.000000
   64        7.994120   1.000000
   65        8.834113   1.000000
   66        8.925570   1.000000
   67        8.925629   1.000000
   68        9.043739   1.014584
   69        9.068485   0.791730
   70        9.069251   0.639385
   71        9.085619   0.463266
   72        9.085714   0.329722
   73        9.248778   0.000000
   74        9.248842   0.000000
   75        9.588744   0.000000
   76        9.588834   0.000000
   77        9.590462   0.000000
   78        9.590559   0.000000
   79        9.866432   0.000000
   80        9.959595   0.000000
   81       10.094532   0.000000
   82       10.271187   0.000000
   83       10.285136   0.000000
   84       10.343192   0.000000
   85       10.347999   0.000000
   86       10.419157   0.000000
   87       10.448630   0.000000
   88       10.525777   0.000000
   89       10.548984   0.000000
   90       10.594570   0.000000

  0.4545455E+00  0.3669219E-15  0.3742002E-15  0.1502630E-02
    1       -4.735376   1.000000
    2       -4.330145   1.000000
    3       -3.627714   1.000000
    4       -3.627629   1.000000
    5       -3.359633   1.000000
    6       -3.359554   1.000000
    7       -2.433675   1.000000
    8       -2.432567   1.000000
    9       -2.127178   1.000000
   10       -2.127121   1.000000
   11       -2.126159   1.000000
   12       -2.126103   1.000000
   13        0.418857   1.000000
   14        0.418910   1.000000
   15        0.421002   1.000000
   16        0.421055   1.000000
   17        0.469112   1.000000
   18        0.477361   1.000000
   19        1.760543   1.000000
   20        1.811660   1.000000
   21        1.842268   1.000000
   22        1.842309   1.000000
   23        1.956965   1.000000
   24        2.023143   1.000000
   25        2.023145   1.000000
   26        2.149202   1.000000
   27        2.149264   1.000000
   28        2.228886   1.000000
   29        2.228941   1.000000
   30        2.562909   1.000000
   31        2.998766   1.000000
   32        2.998810   1.000000
   33        3.208507   1.000000
   34        3.208582   1.000000
   35        3.816945   1.000000
   36        3.816985   1.000000
   37        3.973502   1.000000
   38        3.973533   1.000000
   39        4.197057   1.000000
   40        4.197073   1.000000
   41        4.358553   1.000000
   42        4.358586   1.000000
   43        4.643157   1.000000
   44        4.692080   1.000000
   45        4.744712   1.000000
   46        4.751343   1.000000
   47        4.756447   1.000000
   48        4.862131   1.000000
   49        4.862172   1.000000
   50        4.903224   1.000000
   51        4.903258   1.000000
   52        4.940330   1.000000
   53        5.188881   1.000000
   54        5.205392   1.000000
   55        5.769795   1.000000
   56        5.769859   1.000000
   57        6.134100   1.000000
   58        6.134164   1.000000
   59        7.155493   1.000000
   60        7.166946   1.000000
   61        7.435310   1.000000
   62        7.461636   1.000000
   63        8.326035   1.000000
   64        8.326116   1.000000
   65        8.689395   1.000000
   66        8.694349   1.000000
   67        8.694439   1.000000
   68        8.706543   1.000000
   69        8.909338   1.000000
   70        8.989699   1.000000
   71        9.005447   1.026683
   72        9.005507   1.123810
   73        9.116889   0.000000
   74        9.116949   0.000000
   75        9.546303   0.000000
   76        9.546393   0.000000
   77        9.546598   0.000000
   78        9.546687   0.000000
   79        9.751268   0.000000
   80        9.817176   0.000000
   81        9.999937   0.000000
   82       10.134548   0.000000
   83       10.366574   0.000000
   84       10.372352   0.000000
   85       10.380935   0.000000
   86       10.384374   0.000000
   87       10.433300   0.000000
   88       10.453034   0.000000
   89       10.938034   0.000000
   90       11.069064   0.000000

  0.3741911E-15  0.9090909E-01  0.3742002E-15  0.1502630E-02
    1       -5.663064   1.000000
    2       -4.257511   1.000000
    3       -4.257415   1.000000
    4       -2.223944   1.000000
    5       -2.223904   1.000000
    6       -2.202368   1.000000
    7       -2.007375   1.000000
    8       -2.007337   1.000000
    9       -1.891280   1.000000
   10       -1.891237   1.000000
   11       -1.885261   1.000000
   12       -1.875657   1.000000
   13       -1.133863   1.000000
   14       -1.127205   1.000000
   15       -0.816000   1.000000
   16       -0.280200   1.000000
   17       -0.280100   1.000000
   18       -0.203722   1.000000
   19       -0.203624   1.000000
   20       -0.045844   1.000000
   21       -0.045752   1.000000
   22        1.271616   1.000000
   23        1.271621   1.000000
   24        2.821977   1.000000
   25        2.822009   1.000000
   26        2.987434   1.000000
   27        2.987465   1.000000
   28        3.329707   1.000000
   29        3.329740   1.000000
   30        3.718553   1.000000
   31        3.803505   1.000000
   32        3.803559   1.000000
   33        3.899744   1.000000
   34        4.002268   1.000000
   35        4.002333   1.000000
   36        4.043754   1.000000
   37        4.240718   1.000000
   38        4.357455   1.000000
   39        4.357508   1.000000
   40        4.477517   1.000000
   41        4.624729   1.000000
   42        4.628525   1.000000
   43        4.628528   1.000000
   44        4.637138   1.000000
   45        4.672610   1.000000
   46        4.763117   1.000000
   47        4.770793   1.000000
   48        4.770800   1.000000
   49        4.838007   1.000000
   50        4.857862   1.000000
   51        4.857879   1.000000
   52        5.330352   1.000000
   53        5.720066   1.000000
   54        5.720167   1.000000
   55        5.851929   1.000000
   56        5.949591   1.000000
   57        5.949685   1.000000
   58        6.019033   1.000000
   59        7.265495   1.000000
   60        7.265526   1.000000
   61        7.348097   1.000000
   62        7.348130   1.000000
   63        8.430440   1.000000
   64        8.462940   1.000000
   65        8.719584   1.000000
   66        8.738023   1.000000
   67        8.738079   1.000000
   68        9.230691  -0.050061
   69        9.359440  -0.023963
   70        9.359496   0.000000
   71        9.367661   0.000000
   72        9.450432   0.000000
   73        9.450495   0.000000
   74        9.550981   0.000000
   75        9.551055   0.000000
   76        9.605595   0.000000
   77        9.605676   0.000000
   78        9.618585   0.000000
   79        9.618668   0.000000
   80        9.947779   0.000000
   81        9.986888   0.000000
   82       10.086299   0.000000
   83       10.086620   0.000000
   84       10.101249   0.000000
   85       10.236930   0.000000
   86       10.255089   0.000000
   87       10.265401   0.000000
   88       10.280581   0.000000
   89       10.579510   0.000000
   90       10.610637   0.000000

  0.9090909E-01  0.9090909E-01  0.3742002E-15  0.1502630E-02
    1       -5.583123   1.000000
    2       -4.201696   1.000000
    3       -4.201601   1.000000
    4       -2.478601   1.000000
    5       -2.463455   1.000000
    6       -2.319902   1.000000
    7       -2.319856   1.000000
    8       -2.142006   1.000000
    9       -2.141952   1.000000
   10       -1.913176   1.000000
   11       -1.913139   1.000000
   12       -1.588285   1.000000
   13       -1.285553   1.000000
   14       -0.546483   1.000000
   15       -0.410100   1.000000
   16       -0.239690   1.000000
   17       -0.239595   1.000000
   18        0.057005   1.000000
   19        0.057094   1.000000
   20        0.118921   1.000000
   21        0.119006   1.000000
   22        1.346044   1.000000
   23        1.346050   1.000000
   24        2.796594   1.000000
   25        2.796634   1.000000
   26        2.801269   1.000000
   27        2.801301   1.000000
   28        3.253222   1.000000
   29        3.384563   1.000000
   30        3.384598   1.000000
   31        3.761470   1.000000
   32        3.761515   1.000000
   33        3.942549   1.000000
   34        3.982627   1.000000
   35        4.077519   1.000000
   36        4.077582   1.000000
   37        4.203914   1.000000
   38        4.203944   1.000000
   39        4.267513   1.000000
   40        4.287912   1.000000
   41        4.315583   1.000000
   42        4.540350   1.000000
   43        4.540360   1.000000
   44        4.588520   1.000000
   45        4.616606   1.000000
   46        4.821804   1.000000
   47        4.821809   1.000000
   48        4.906011   1.000000
   49        4.906051   1.000000
   50        4.953018   1.000000
   51        5.339141   1.000000
   52        5.359007   1.000000
   53        5.442189   1.000000
   54        5.442266   1.000000
   55        5.691730   1.000000
   56        5.691803   1.000000
   57        5.863639   1.000000
   58        6.223927   1.000000
   59        7.262246   1.000000
   60        7.262255   1.000000
   61        7.347844   1.000000
   62        7.347862   1.000000
   63        8.049708   1.000000
   64        8.447844   1.000000
   65        8.633413   1.000000
   66        8.845949   1.000000
   67        8.846006   1.000000
   68        9.196912  -0.013287
   69        9.447652   0.000000
   70        9.447680   0.000000
   71        9.535103   0.000000
   72        9.535189   0.000000
   73        9.543780   0.000000
   74        9.543853   0.000000
   75        9.574159   0.000000
   76        9.692803   0.000000
   77        9.693199   0.000000
   78        9.737884   0.000000
   79        9.739388   0.000000
   80        9.867640   0.000000
   81        9.890048   0.000000
   82       10.007676   0.000000
   83       10.008596   0.000000
   84       10.028764   0.000000
   85       10.061558   0.000000
   86       10.067576   0.000000
   87       10.322107   0.000000
   88       10.490408   0.000000
   89       10.517819   0.000000
   90       10.542161   0.000000

  0.1818182E+00  0.9090909E-01  0.3742002E-15  0.1502630E-02
    1       -5.424889   1.000000
    2       -4.092447   1.000000
    3       -4.092354   1.000000
    4       -3.048391   1.000000
    5       -2.684346   1.000000
    6       -2.552639   1.000000
    7       -2.552579   1.000000
    8       -2.324648   1.000000
    9       -2.324592   1.000000
   10       -1.846703   1.000000
   11       -1.846664   1.000000
   12       -1.654937   1.000000
   13       -0.980290   1.000000
   14       -0.198606   1.000000
   15       -0.198520   1.000000
   16       -0.098194   1.000000
   17        0.214123   1.000000
   18        0.318658   1.000000
   19        0.318735   1.000000
   20        0.565139   1.000000
   21        0.565216   1.000000
   22        1.492688   1.000000
   23        1.492695   1.000000
   24        2.548524   1.000000
   25        2.548575   1.000000
   26        2.683873   1.000000
   27        2.721029   1.000000
   28        2.721063   1.000000
   29        3.437430   1.000000
   30        3.437470   1.000000
   31        3.460393   1.000000
   32        3.676547   1.000000
   33        3.676580   1.000000
   34        3.924559   1.000000
   35        3.969651   1.000000
   36        3.969668   1.000000
   37        4.128714   1.000000
   38        4.138740   1.000000
   39        4.138792   1.000000
   40        4.247901   1.000000
   41        4.363332   1.000000
   42        4.363376   1.000000
   43        4.443405   1.000000
   44        4.587845   1.000000
   45        4.625435   1.000000
   46        4.907531   1.000000
   47        4.907557   1.000000
   48        5.027377   1.000000
   49        5.027424   1.000000
   50        5.039468   1.000000
   51        5.039517   1.000000
   52        5.076360   1.000000
   53        5.327143   1.000000
   54        5.327194   1.000000
   55        5.393288   1.000000
   56        5.616176   1.000000
   57        5.935185   1.000000
   58        6.678282   1.000000
   59        7.052219   1.000000
   60        7.052248   1.000000
   61        7.511669   1.000000
   62        7.511717   1.000000
   63        7.594838   1.000000
   64        8.204267   1.000000
   65        8.618304   1.000000
   66        8.950875   1.000000
   67        8.950935   1.006829
   68        9.143560  -0.056592
   69        9.378075  -0.010284
   70        9.378149   0.000000
   71        9.500420   0.000000
   72        9.500577   0.000000
   73        9.654279   0.000000
   74        9.656491   0.000000
   75        9.695434   0.000000
   76        9.700045   0.000000
   77        9.765908   0.000000
   78        9.765942   0.000000
   79        9.768776   0.000000
   80        9.771394   0.000000
   81        9.838920   0.000000
   82        9.970501   0.000000
   83       10.037469   0.000000
   84       10.046633   0.000000
   85       10.157886   0.000000
   86       10.238582   0.000000
   87       10.322307   0.000000
   88       10.390122   0.000000
   89       10.408347   0.000000
   90       10.496869   0.000000

  0.2727273E+00  0.9090909E-01  0.3742002E-15  0.1502630E-02
    1       -5.191004   1.000000
    2       -3.932755   1.000000
    3       -3.932665   1.000000
    4       -3.587381   1.000000
    5       -2.879743   1.000000
    6       -2.879673   1.000000
    7       -2.837376   1.000000
    8       -2.400694   1.000000
    9       -2.400635   1.000000
   10       -1.808929   1.000000
   11       -1.808885   1.000000
   12       -1.782030   1.000000
   13       -0.523846   1.000000
   14       -0.105815   1.000000
   15       -0.105745   1.000000
   16        0.327720   1.000000
   17        0.559617   1.000000
   18        0.559683   1.000000
   19        0.890934   1.000000
   20        1.126779   1.000000
   21        1.126845   1.000000
   22        1.702874   1.000000
   23        1.702881   1.000000
   24        2.092866   1.000000
   25        2.292590   1.000000
   26        2.292654   1.000000
   27        2.564862   1.000000
   28        2.564902   1.000000
   29        2.921006   1.000000
   30        3.377611   1.000000
   31        3.377627   1.000000
   32        3.435609   1.000000
   33        3.577885   1.000000
   34        3.577933   1.000000
   35        3.874138   1.000000
   36        3.874157   1.000000
   37        3.892276   1.000000
   38        3.892338   1.000000
   39        4.287084   1.000000
   40        4.287134   1.000000
   41        4.329616   1.000000
   42        4.333895   1.000000
   43        4.589714   1.000000
   44        4.608684   1.000000
   45        4.641519   1.000000
   46        4.646994   1.000000
   47        4.647032   1.000000
   48        4.975615   1.000000
   49        4.975656   1.000000
   50        5.008424   1.000000
   51        5.008452   1.000000
   52        5.209410   1.000000
   53        5.278591   1.000000
   54        5.278644   1.000000
   55        5.326114   1.000000
   56        5.438417   1.000000
   57        6.469714   1.000000
   58        6.723061   1.000000
   59        6.723111   1.000000
   60        7.158396   1.000000
   61        7.175605   1.000000
   62        7.768425   1.000000
   63        7.768493   1.000000
   64        7.874964   1.000000
   65        8.688785   1.000000
   66        9.014961   1.000000
   67        9.015022   0.999166
   68        9.068120   0.940335
   69        9.109488   0.411425
   70        9.109569   0.197133
   71        9.235085  -0.080357
   72        9.325010  -0.032288
   73        9.406822   0.000000
   74        9.406888   0.000000