   54   54    1    1
  0.1529376E+02  0.6071501E-09  0.6071501E-09  0.2586333E-08  0.5000000E-15
   1.0000000000000000E-004
  CAR 
 Name                                    
    198     41    132

  0.3742002E-15  0.3742002E-15  0.1262379E-14  0.1234568E-01
    1      -12.217730   1.000000
    2      -11.585600   1.000000
    3      -10.917040   1.000000
    4      -10.436161   1.000000
    5       -9.111999   1.000000
    6       -9.013169   1.000000
    7       -8.908770   1.000000
    8       -8.679141   1.000000
    9       -8.519929   1.000000
   10       -8.514267   1.000000
   11       -8.330593   1.000000
   12       -8.305536   1.000000
   13       -8.291167   1.000000
   14       -8.259160   1.000000
   15       -8.257387   1.000000
   16       -8.181039   1.000000
   17       -8.073873   1.000000
   18       -8.044904   1.000000
   19       -7.978460   1.000000
   20       -7.614500   1.000000
   21       -7.526961   1.000000
   22       -7.312280   1.000000
   23       -6.915470   1.000000
   24       -6.721321   1.000000
   25       -6.643014   1.000000
   26       -6.616169   1.000000
   27       -6.372183   1.000000
   28       -5.582533   1.000000
   29       -5.493185   1.000000
   30       -5.402822   1.000000
   31       -4.551590   1.000000
   32       -4.064574   1.000000
   33       -4.006942   1.000000
   34       -3.881094   1.000000
   35       -3.576708   1.000000
   36       -3.502753   1.000000
   37       -3.402956   1.000000
   38       -3.373708   1.000000
   39       -3.321310   1.000000
   40       -3.305787   1.000000
   41       -3.268737   1.000000
   42       -3.146078   1.000000
   43       -3.133869   1.000000
   44       -3.113297   1.000000
   45       -2.792785   1.000000
   46       -2.728423   1.000000
   47       -2.637693   1.000000
   48       -2.612866   1.000000
   49       -2.607381   1.000000
   50       -2.532947   1.000000
   51       -2.496870   1.000000
   52       -2.488555   1.000000
   53       -2.458449   1.000000
   54       -2.447851   1.000000
   55       -2.219903   1.000000
   56       -2.199690   1.000000
   57       -2.129894   1.000000
   58       -2.095533   1.000000
   59       -2.031542   1.000000
   60       -2.010666   1.000000
   61       -1.924291   1.000000
   62       -1.913974   1.000000
   63       -1.748434   1.000000
   64       -1.736572   1.000000
   65       -1.704706   1.000000
   66       -1.645644   1.000000
   67       -1.613184   1.000000
   68       -1.533552   1.000000
   69       -1.311648   1.000000
   70       -1.305328   1.000000
   71       -1.139333   1.000000
   72       -0.977449   1.000000
   73       -0.791780   1.000000
   74       -0.746211   1.000000
   75       -0.699424   1.000000
   76       -0.665292   1.000000
   77        0.203525   1.000000
   78        0.275745   1.000000
   79        0.298892   1.000000
   80        0.336861   1.000000
   81        0.495400   1.000000
   82        0.511270   1.000000
   83        0.662059   1.000000
   84        0.692912   1.000000
   85        0.943797   1.000000
   86        1.141487   1.000000
   87        1.155912   1.000000
   88        1.395544   1.000000
   89        1.518845   1.000000
   90        1.587989   1.000000
   91        1.885598   1.000191
   92        1.907104   1.000333
   93        1.939656   1.000736
   94        2.060093   1.008082
   95        2.251591   1.028727
   96        2.288515   1.002712
   97        2.310593   0.974344
   98        2.483433   0.399198
   99        2.750769  -0.029530
  100        2.798893  -0.018662
  101        2.888254  -0.004882
  102        2.931842  -0.002097
  103        3.006610  -0.000379
  104        3.019724  -0.000271
  105        3.127508  -0.000012
  106        3.159546  -0.000004
  107        3.265762  -0.000000
  108        3.294244  -0.000000
  109        3.360957  -0.000000
  110        3.384923  -0.000000
  111        3.449481  -0.000000
  112        3.514031  -0.000000
  113        3.575773  -0.000000
  114        3.606342  -0.000000
  115        3.610186  -0.000000
  116        3.637079  -0.000000
  117        3.641844  -0.000000
  118        3.673126  -0.000000
  119        3.703472  -0.000000
  120        3.753000  -0.000000
  121        3.814330  -0.000000
  122        3.890192  -0.000000
  123        3.919746  -0.000000
  124        3.959004  -0.000000
  125        3.971011  -0.000000
  126        4.134737  -0.000000
  127        4.328150  -0.000000
  128        4.393233  -0.000000
  129        4.457420  -0.000000
  130        4.752498  -0.000000
  131        4.827469  -0.000000
  132        5.057073  -0.000000

  0.1111111E+00  0.3762813E-15  0.1262379E-14  0.2469136E-01
    1      -12.159538   1.000000
    2      -11.533072   1.000000
    3      -10.874779   1.000000
    4      -10.405136   1.000000
    5       -9.188905   1.000000
    6       -9.024186   1.000000
    7       -9.006099   1.000000
    8       -8.922940   1.000000
    9       -8.802191   1.000000
   10       -8.680981   1.000000
   11       -8.585489   1.000000
   12       -8.542820   1.000000
   13       -8.503819   1.000000
   14       -8.479551   1.000000
   15       -8.278469   1.000000
   16       -8.109984   1.000000
   17       -7.788140   1.000000
   18       -7.765615   1.000000
   19       -7.447798   1.000000
   20       -7.404184   1.000000
   21       -7.217887   1.000000
   22       -7.144785   1.000000
   23       -6.801451   1.000000
   24       -6.626857   1.000000
   25       -6.580077   1.000000
   26       -6.494287   1.000000
   27       -6.290724   1.000000
   28       -5.521383   1.000000
   29       -5.430855   1.000000
   30       -5.265531   1.000000
   31       -4.522382   1.000000
   32       -4.067863   1.000000
   33       -4.046185   1.000000
   34       -3.858754   1.000000
   35       -3.592385   1.000000
   36       -3.528996   1.000000
   37       -3.461372   1.000000
   38       -3.407543   1.000000
   39       -3.363423   1.000000
   40       -3.306112   1.000000
   41       -3.281124   1.000000
   42       -3.221403   1.000000
   43       -3.162803   1.000000
   44       -3.124445   1.000000
   45       -3.044834   1.000000
   46       -2.971784   1.000000
   47       -2.775381   1.000000
   48       -2.700768   1.000000
   49       -2.655528   1.000000
   50       -2.602286   1.000000
   51       -2.503582   1.000000
   52       -2.457964   1.000000
   53       -2.406857   1.000000
   54       -2.309628   1.000000
   55       -2.202596   1.000000
   56       -2.152397   1.000000
   57       -2.139436   1.000000
   58       -2.083045   1.000000
   59       -2.053222   1.000000
   60       -1.977280   1.000000
   61       -1.917475   1.000000
   62       -1.873641   1.000000
   63       -1.771691   1.000000
   64       -1.748524   1.000000
   65       -1.705715   1.000000
   66       -1.612844   1.000000
   67       -1.545209   1.000000
   68       -1.471284   1.000000
   69       -1.374444   1.000000
   70       -1.308799   1.000000
   71       -1.095742   1.000000
   72       -1.046599   1.000000
   73       -1.028740   1.000000
   74       -0.926158   1.000000
   75       -0.768143   1.000000
   76       -0.688398   1.000000
   77       -0.043807   1.000000
   78        0.109716   1.000000
   79        0.145112   1.000000
   80        0.350953   1.000000
   81        0.483054   1.000000
   82        0.602001   1.000000
   83        0.678831   1.000000
   84        0.696257   1.000000
   85        0.871182   1.000000
   86        0.917581   1.000000
   87        1.056294   1.000000
   88        1.522049   1.000000
   89        1.550169   1.000000
   90        1.738000   1.000002
   91        1.920851   1.000469
   92        1.968496   1.001415
   93        2.035461   1.005327
   94        2.087476   1.012244
   95        2.123584   1.019463
   96        2.155292   1.026722
   97        2.345518   0.905863
   98        2.483502   0.398916
   99        2.732339  -0.032985
  100        2.834341  -0.011733
  101        2.917153  -0.002824
  102        2.941054  -0.001728
  103        2.984169  -0.000654
  104        3.016366  -0.000296
  105        3.055969  -0.000103
  106        3.099933  -0.000029
  107        3.162668  -0.000004
  108        3.242564  -0.000000
  109        3.276134  -0.000000
  110        3.352368  -0.000000
  111        3.379627  -0.000000
  112        3.488644  -0.000000
  113        3.521893  -0.000000
  114        3.543716  -0.000000
  115        3.590795  -0.000000
  116        3.604172  -0.000000
  117        3.650231  -0.000000
  118        3.718216  -0.000000
  119        3.732871  -0.000000
  120        3.801069  -0.000000
  121        3.824512  -0.000000
  122        3.828932  -0.000000
  123        3.901968  -0.000000
  124        4.008027  -0.000000
  125        4.086847  -0.000000
  126        4.181930  -0.000000
  127        4.258841  -0.000000
  128        4.369445  -0.000000
  129        4.633069  -0.000000
  130        4.673322  -0.000000
  131        4.978788  -0.000000
  132        5.208271  -0.000000

  0.2222222E+00  0.3499357E-15  0.1262379E-14  0.2469136E-01
    1      -11.986792   1.000000
    2      -11.377556   1.000000
    3      -10.750460   1.000000
    4      -10.312250   1.000000
    5       -9.683041   1.000000
    6       -9.394616   1.000000
    7       -9.279776   1.000000
    8       -9.046843   1.000000
    9       -9.034232   1.000000
   10       -8.900909   1.000000
   11       -8.827418   1.000000
   12       -8.778683   1.000000
   13       -8.671667   1.000000
   14       -8.655518   1.000000
   15       -8.363099   1.000000
   16       -8.169504   1.000000
   17       -7.337103   1.000000
   18       -7.322804   1.000000
   19       -7.042709   1.000000
   20       -6.950087   1.000000
   21       -6.670168   1.000000
   22       -6.639157   1.000000
   23       -6.562822   1.000000
   24       -6.456491   1.000000
   25       -6.203798   1.000000
   26       -6.151108   1.000000
   27       -6.030086   1.000000
   28       -5.375100   1.000000
   29       -5.336511   1.000000
   30       -4.856253   1.000000
   31       -4.447342   1.000000
   32       -4.169577   1.000000
   33       -4.121090   1.000000
   34       -3.876685   1.000000
   35       -3.818366   1.000000
   36       -3.748428   1.000000
   37       -3.713976   1.000000
   38       -3.691539   1.000000
   39       -3.495633   1.000000
   40       -3.449512   1.000000
   41       -3.364075   1.000000
   42       -3.347471   1.000000
   43       -3.289193   1.000000
   44       -3.181299   1.000000
   45       -3.098598   1.000000
   46       -3.022634   1.000000
   47       -2.809389   1.000000
   48       -2.760347   1.000000
   49       -2.683169   1.000000
   50       -2.647824   1.000000
   51       -2.634652   1.000000
   52       -2.486073   1.000000
   53       -2.443972   1.000000
   54       -2.421289   1.000000
   55       -2.281145   1.000000
   56       -2.179315   1.000000
   57       -2.138059   1.000000
   58       -2.117314   1.000000
   59       -2.015268   1.000000
   60       -1.972298   1.000000
   61       -1.925928   1.000000
   62       -1.894221   1.000000
   63       -1.872581   1.000000
   64       -1.794512   1.000000
   65       -1.716471   1.000000
   66       -1.642289   1.000000
   67       -1.610189   1.000000
   68       -1.513668   1.000000
   69       -1.475623   1.000000
   70       -1.390548   1.000000
   71       -1.293832   1.000000
   72       -1.128361   1.000000
   73       -1.003153   1.000000
   74       -0.797842   1.000000
   75       -0.721664   1.000000
   76       -0.672298   1.000000
   77       -0.575936   1.000000
   78       -0.158761   1.000000
   79        0.034747   1.000000
   80        0.082341   1.000000
   81        0.303573   1.000000
   82        0.497177   1.000000
   83        0.668006   1.000000
   84        0.769721   1.000000
   85        0.823855   1.000000
   86        0.834473   1.000000
   87        1.001507   1.000000
   88        1.263655   1.000000
   89        1.444912   1.000000
   90        1.549204   1.000000
   91        1.721106   1.000001
   92        1.961064   1.001201
   93        2.066484   1.008946
   94        2.116941   1.018010
   95        2.186379   1.032965
   96        2.398597   0.744644
   97        2.456317   0.513127
   98        2.550518   0.155320
   99        2.614758   0.016159
  100        2.694563  -0.035062
  101        2.735931  -0.032391
  102        2.808869  -0.016539
  103        2.852821  -0.008881
  104        2.897552  -0.004117
  105        3.044443  -0.000141
  106        3.089244  -0.000040
  107        3.136166  -0.000009
  108        3.186790  -0.000002
  109        3.260243  -0.000000
  110        3.300847  -0.000000
  111        3.324819  -0.000000
  112        3.375639  -0.000000
  113        3.389121  -0.000000
  114        3.422776  -0.000000
  115        3.506504  -0.000000
  116        3.555931  -0.000000
  117        3.617741  -0.000000
  118        3.638015  -0.000000
  119        3.680127  -0.000000
  120        3.763698  -0.000000
  121        3.867343  -0.000000
  122        3.897201  -0.000000
  123        3.971093  -0.000000
  124        3.994798  -0.000000
  125        4.043981  -0.000000
  126        4.149906  -0.000000
  127        4.209057  -0.000000
  128        4.419866  -0.000000
  129        4.484388  -0.000000
  130        4.604507  -0.000000
  131        4.983894  -0.000000
  132        5.127712  -0.000000

  0.3333333E+00  0.3916643E-15  0.1262379E-14  0.2469136E-01
    1      -11.704824   1.000000
    2      -11.125409   1.000000
    3      -10.553598   1.000000
    4      -10.290482   1.000000
    5      -10.155186   1.000000
    6       -9.880156   1.000000
    7       -9.641899   1.000000
    8       -9.293184   1.000000
    9       -9.118821   1.000000
   10       -9.101078   1.000000
   11       -8.914771   1.000000
   12       -8.895133   1.000000
   13       -8.765462   1.000000
   14       -8.755124   1.000000
   15       -8.401582   1.000000
   16       -8.262924   1.000000
   17       -6.862510   1.000000
   18       -6.851151   1.000000
   19       -6.618249   1.000000
   20       -6.577069   1.000000
   21       -6.485819   1.000000
   22       -6.448724   1.000000
   23       -5.869332   1.000000
   24       -5.839706   1.000000
   25       -5.754822   1.000000
   26       -5.679685   1.000000
   27       -5.504994   1.000000
   28       -5.302583   1.000000
   29       -5.087126   1.000000
   30       -4.568778   1.000000
   31       -4.467101   1.000000
   32       -4.460128   1.000000
   33       -4.312550   1.000000
   34       -4.290320   1.000000
   35       -4.212233   1.000000
   36       -4.195793   1.000000
   37       -4.121935   1.000000
   38       -3.703973   1.000000
   39       -3.546666   1.000000
   40       -3.507888   1.000000
   41       -3.473330   1.000000
   42       -3.444513   1.000000
   43       -3.327442   1.000000
   44       -3.219489   1.000000
   45       -3.048912   1.000000
   46       -2.980605   1.000000
   47       -2.937563   1.000000
   48       -2.898285   1.000000
   49       -2.847874   1.000000
   50       -2.783466   1.000000
   51       -2.734572   1.000000
   52       -2.639943   1.000000
   53       -2.561657   1.000000
   54       -2.501978   1.000000
   55       -2.390524   1.000000
   56       -2.344953   1.000000
   57       -2.238862   1.000000
   58       -2.201963   1.000000
   59       -2.131394   1.000000
   60       -2.056465   1.000000
   61       -1.999282   1.000000
   62       -1.922499   1.000000
   63       -1.887617   1.000000
   64       -1.850249   1.000000
   65       -1.747905   1.000000
   66       -1.672693   1.000000
   67       -1.620919   1.000000
   68       -1.547916   1.000000
   69       -1.480291   1.000000
   70       -1.437225   1.000000
   71       -1.244523   1.000000
   72       -1.152497   1.000000
   73       -0.967205   1.000000
   74       -0.877109   1.000000
   75       -0.639567   1.000000
   76       -0.561968   1.000000
   77       -0.457836   1.000000
   78       -0.311282   1.000000
   79       -0.231279   1.000000
   80        0.000395   1.000000
   81        0.098970   1.000000
   82        0.200934   1.000000
   83        0.590611   1.000000
   84        0.622655   1.000000
   85        0.702251   1.000000
   86        0.983323   1.000000
   87        0.999107   1.000000
   88        1.151059   1.000000
   89        1.249263   1.000000
   90        1.410716   1.000000
   91        1.617150   1.000000
   92        1.707749   1.000001
   93        1.895291   1.000246
   94        1.944522   1.000825
   95        2.141204   1.023479
   96        2.198308   1.034558
   97        2.304837   0.982790
   98        2.370133   0.839276
   99        2.478113   0.421285
  100        2.541695   0.182379
  101        2.623299   0.005156
  102        2.731184  -0.033165
  103        2.756171  -0.028370
  104        2.824173  -0.013535
  105        2.936606  -0.001898
  106        2.969941  -0.000912
  107        3.054604  -0.000107
  108        3.085227  -0.000045
  109        3.120413  -0.000015
  110        3.207707  -0.000001
  111        3.236040  -0.000000
  112        3.288865  -0.000000
  113        3.320370  -0.000000
  114        3.358161  -0.000000
  115        3.403541  -0.000000
  116        3.626208  -0.000000
  117        3.729189  -0.000000
  118        3.759108  -0.000000
  119        3.827813  -0.000000
  120        3.888011  -0.000000
  121        3.927713  -0.000000
  122        3.974202  -0.000000
  123        4.030300  -0.000000
  124        4.083457  -0.000000
  125        4.140913  -0.000000
  126        4.220192  -0.000000
  127        4.265120  -0.000000
  128        4.337113  -0.000000
  129        4.460906  -0.000000
  130        4.520163  -0.000000
  131        4.768942  -0.000000
  132        5.003865  -0.000000

  0.4444444E+00  0.3830161E-15  0.1262379E-14  0.2469136E-01
    1      -11.322252   1.000000
    2      -10.861116   1.000000
    3      -10.772375   1.000000
    4      -10.362084   1.000000
    5      -10.277535   1.000000
    6       -9.975372   1.000000
    7       -9.937760   1.000000
    8       -9.645322   1.000000
    9       -9.176144   1.000000
   10       -9.153083   1.000000
   11       -8.961643   1.000000
   12       -8.918344   1.000000
   13       -8.822478   1.000000
   14       -8.791509   1.000000
   15       -8.395840   1.000000
   16       -8.340348   1.000000
   17       -6.580085   1.000000
   18       -6.561318   1.000000
   19       -6.291810   1.000000
   20       -6.272580   1.000000
   21       -6.224527   1.000000
   22       -6.208308   1.000000
   23       -5.544137   1.000000
   24       -5.365878   1.000000
   25       -5.280328   1.000000
   26       -5.091557   1.000000
   27       -5.011420   1.000000
   28       -4.968370   1.000000
   29       -4.950020   1.000000
   30       -4.922365   1.000000
   31       -4.847669   1.000000
   32       -4.709168   1.000000
   33       -4.609435   1.000000
   34       -4.543561   1.000000
   35       -4.386582   1.000000
   36       -4.330209   1.000000
   37       -4.260353   1.000000
   38       -4.171752   1.000000
   39       -3.834554   1.000000
   40       -3.667481   1.000000
   41       -3.545793   1.000000
   42       -3.430228   1.000000
   43       -3.339410   1.000000
   44       -3.228264   1.000000
   45       -3.196004   1.000000
   46       -3.089582   1.000000
   47       -2.976335   1.000000
   48       -2.913278   1.000000
   49       -2.864293   1.000000
   50       -2.790235   1.000000
   51       -2.748948   1.000000
   52       -2.669381   1.000000
   53       -2.604678   1.000000
   54       -2.537559   1.000000
   55       -2.440582   1.000000
   56       -2.350016   1.000000
   57       -2.313530   1.000000
   58       -2.257327   1.000000
   59       -2.232989   1.000000
   60       -2.197938   1.000000
   61       -2.096688   1.000000
   62       -2.037316   1.000000
   63       -1.992074   1.000000
   64       -1.963122   1.000000
   65       -1.778661   1.000000
   66       -1.677793   1.000000
   67       -1.586644   1.000000
   68       -1.519800   1.000000
   69       -1.413519   1.000000
   70       -1.358104   1.000000
   71       -1.175400   1.000000
   72       -1.096609   1.000000
   73       -0.820104   1.000000
   74       -0.757732   1.000000
   75       -0.708644   1.000000
   76       -0.633285   1.000000
   77       -0.568288   1.000000
   78       -0.444906   1.000000
   79       -0.265087   1.000000
   80       -0.014247   1.000000
   81        0.157659   1.000000
   82        0.250840   1.000000
   83        0.423077   1.000000
   84        0.494917   1.000000
   85        0.642588   1.000000
   86        0.771655   1.000000
   87        1.005742   1.000000
   88        1.140919   1.000000
   89        1.303995   1.000000
   90        1.482900   1.000000
   91        1.574767   1.000000
   92        1.583136   1.000000
   93        1.711625   1.000001
   94        1.859583   1.000094
   95        1.954402   1.001034
   96        2.025239   1.004429
   97        2.159592   1.027690
   98        2.215681   1.035452
   99        2.276258   1.014040
  100        2.314341   0.968428
  101        2.387575   0.783347
  102        2.534396   0.206113
  103        2.675577  -0.031607
  104        2.722433  -0.034349
  105        2.776838  -0.023663
  106        2.856317  -0.008403
  107        2.920919  -0.002620
  108        2.988313  -0.000593
  109        3.053505  -0.000110
  110        3.112364  -0.000020
  111        3.155727  -0.000005
  112        3.237453  -0.000000
  113        3.316297  -0.000000
  114        3.341020  -0.000000
  115        3.630025  -0.000000
  116        3.749426  -0.000000
  117        3.831761  -0.000000
  118        3.842653  -0.000000
  119        3.961143  -0.000000
  120        3.999826  -0.000000
  121        4.079210  -0.000000
  122        4.108281  -0.000000
  123        4.174345  -0.000000
  124        4.211150  -0.000000
  125        4.249529  -0.000000
  126        4.297148  -0.000000
  127        4.334903  -0.000000
  128        4.393790  -0.000000
  129        4.537996  -0.000000
  130        4.607669  -0.000000
  131        4.887932  -0.000000
  132        4.932003  -0.000000

  0.3742002E-15  0.1111111E+00  0.1262379E-14  0.2469136E-01
    1      -12.159541   1.000000
    2      -11.533068   1.000000
    3      -10.874780   1.000000
    4      -10.405128   1.000000
    5       -9.188125   1.000000
    6       -9.026215   1.000000
    7       -9.005985   1.000000
    8       -8.924854   1.000000
    9       -8.802253   1.000000
   10       -8.677281   1.000000
   11       -8.583041   1.000000
   12       -8.542833   1.000000
   13       -8.505215   1.000000
   14       -8.479533   1.000000
   15       -8.278582   1.000000
   16       -8.110672   1.000000
   17       -7.787846   1.000000
   18       -7.766878   1.000000
   19       -7.448362   1.000000
   20       -7.405590   1.000000
   21       -7.220433   1.000000
   22       -7.140133   1.000000
   23       -6.799956   1.000000
   24       -6.627382   1.000000
   25       -6.580698   1.000000
   26       -6.493542   1.000000
   27       -6.291195   1.000000
   28       -5.521904   1.000000
   29       -5.429772   1.000000
   30       -5.265986   1.000000
   31       -4.522419   1.000000
   32       -4.067411   1.000000
   33       -4.045624   1.000000
   34       -3.859461   1.000000
   35       -3.594886   1.000000
   36       -3.526487   1.000000
   37       -3.459334   1.000000
   38       -3.409309   1.000000
   39       -3.361433   1.000000
   40       -3.305769   1.000000
   41       -3.285440   1.000000
   42       -3.221964   1.000000
   43       -3.153312   1.000000
   44       -3.137758   1.000000
   45       -3.039198   1.000000
   46       -2.972701   1.000000
   47       -2.782947   1.000000
   48       -2.697050   1.000000
   49       -2.650820   1.000000
   50       -2.599836   1.000000
   51       -2.497306   1.000000
   52       -2.458105   1.000000
   53       -2.407667   1.000000
   54       -2.309058   1.000000
   55       -2.200585   1.000000
   56       -2.162878   1.000000
   57       -2.116161   1.000000
   58       -2.092557   1.000000
   59       -2.042631   1.000000
   60       -1.984194   1.000000
   61       -1.926458   1.000000
   62       -1.871906   1.000000
   63       -1.771055   1.000000
   64       -1.746247   1.000000
   65       -1.709812   1.000000
   66       -1.617400   1.000000
   67       -1.550615   1.000000
   68       -1.467944   1.000000
   69       -1.372119   1.000000
   70       -1.312287   1.000000
   71       -1.097219   1.000000
   72       -1.043767   1.000000
   73       -1.029012   1.000000
   74       -0.930375   1.000000
   75       -0.765502   1.000000
   76       -0.688713   1.000000
   77       -0.045100   1.000000
   78        0.107497   1.000000
   79        0.144679   1.000000
   80        0.349441   1.000000
   81        0.485200   1.000000
   82        0.599112   1.000000
   83        0.680040   1.000000
   84        0.698052   1.000000
   85        0.871713   1.000000
   86        0.915868   1.000000
   87        1.055643   1.000000
   88        1.520042   1.000000
   89        1.554695   1.000000
   90        1.736905   1.000002
   91        1.904519   1.000312
   92        1.964543   1.001297
   93        2.037112   1.005484
   94        2.080068   1.010999
   95        2.136158   1.022313
   96        2.223691   1.035109
   97        2.295487   0.994909
   98        2.478717   0.418769
   99        2.743644  -0.030975
  100        2.829859  -0.012507
  101        2.907249  -0.003427
  102        2.947845  -0.001494
  103        2.981649  -0.000695
  104        3.033742  -0.000188
  105        3.053005  -0.000112
  106        3.110176  -0.000021
  107        3.149774  -0.000006
  108        3.236565  -0.000000
  109        3.290647  -0.000000
  110        3.352079  -0.000000
  111        3.372044  -0.000000
  112        3.490631  -0.000000
  113        3.513678  -0.000000
  114        3.547116  -0.000000
  115        3.588937  -0.000000
  116        3.617347  -0.000000
  117        3.640262  -0.000000
  118        3.716957  -0.000000
  119        3.729849  -0.000000
  120        3.798649  -0.000000
  121        3.812591  -0.000000
  122        3.836644  -0.000000
  123        3.896767  -0.000000
  124        3.990459  -0.000000
  125        4.084759  -0.000000
  126        4.155980  -0.000000
  127        4.205443  -0.000000
  128        4.264088  -0.000000
  129        4.421766  -0.000000
  130        4.727601  -0.000000
  131        4.866486  -0.000000
  132        5.023480  -0.000000

  0.1111111E+00  0.1111111E+00  0.1262379E-14  0.2469136E-01
    1      -12.044060   1.000000
    2      -11.428839   1.000000
    3      -10.791505   1.000000
    4      -10.344067   1.000000
    5       -9.354997   1.000000
    6       -9.345263   1.000000
    7       -9.188713   1.000000
    8       -9.117677   1.000000
    9       -9.048361   1.000000
   10       -8.996473   1.000000
   11       -8.858902   1.000000
   12       -8.684705   1.000000
   13       -8.622026   1.000000
   14       -8.396303   1.000000
   15       -8.152032   1.000000
   16       -8.092488   1.000000
   17       -7.862449   1.000000
   18       -7.260289   1.000000
   19       -7.052518   1.000000
   20       -7.008642   1.000000
   21       -6.812620   1.000000
   22       -6.778162   1.000000
   23       -6.738402   1.000000
   24       -6.505771   1.000000
   25       -6.427828   1.000000
   26       -6.356653   1.000000
   27       -6.128647   1.000000
   28       -5.403467   1.000000
   29       -5.149972   1.000000
   30       -5.099767   1.000000
   31       -4.464545   1.000000
   32       -4.205129   1.000000
   33       -4.027577   1.000000
   34       -3.856979   1.000000
   35       -3.783720   1.000000
   36       -3.771787   1.000000
   37       -3.601920   1.000000
   38       -3.478738   1.000000
   39       -3.419360   1.000000
   40       -3.372750   1.000000
   41       -3.297355   1.000000
   42       -3.233316   1.000000
   43       -3.216623   1.000000
   44       -3.191154   1.000000
   45       -3.123996   1.000000
   46       -3.001218   1.000000
   47       -2.868028   1.000000
   48       -2.782967   1.000000
   49       -2.723210   1.000000
   50       -2.639647   1.000000
   51       -2.611781   1.000000
   52       -2.508237   1.000000
   53       -2.463638   1.000000
   54       -2.446346   1.000000
   55       -2.222796   1.000000
   56       -2.151874   1.000000
   57       -2.139922   1.000000
   58       -2.090741   1.000000
   59       -2.034402   1.000000
   60       -1.928405   1.000000
   61       -1.853393   1.000000
   62       -1.815436   1.000000
   63       -1.779432   1.000000
   64       -1.717623   1.000000
   65       -1.697395   1.000000
   66       -1.633666   1.000000
   67       -1.566064   1.000000
   68       -1.531451   1.000000
   69       -1.485366   1.000000
   70       -1.359986   1.000000
   71       -1.282320   1.000000
   72       -1.180459   1.000000
   73       -1.046703   1.000000
   74       -0.810016   1.000000
   75       -0.801773   1.000000
   76       -0.756719   1.000000
   77       -0.332006   1.000000
   78       -0.223427   1.000000
   79        0.137860   1.000000
   80        0.245933   1.000000
   81        0.409387   1.000000
   82        0.516727   1.000000
   83        0.568300   1.000000
   84        0.672862   1.000000
   85        0.728028   1.000000
   86        0.910162   1.000000
   87        0.945092   1.000000
   88        1.394813   1.000000
   89        1.463792   1.000000
   90        1.731739   1.000002
   91        1.898638   1.000268
   92        1.929386   1.000577
   93        2.003948   1.002953
   94        2.077230   1.010546
   95        2.205039   1.035137
   96        2.361932   0.863123
   97        2.510874   0.290063
   98        2.552247   0.150232