   50   50    1    1
  0.2363123E+02  0.8645320E-09  0.6085000E-09  0.2593596E-08  0.5000000E-15
   1.0000000000000000E-004
  CAR 
 Name                                    
    190    149    128

  0.3742002E-15  0.3742002E-15  0.3742002E-15  0.3367003E-02
    1      -14.057682   1.000000
    2      -12.711977   1.000000
    3      -12.569830   1.000000
    4      -12.045982   1.000000
    5      -11.650387   1.000000
    6      -11.250860   1.000000
    7      -11.239245   1.000000
    8      -11.208369   1.000000
    9      -11.109053   1.000000
   10      -10.785927   1.000000
   11      -10.762421   1.000000
   12      -10.394476   1.000000
   13      -10.286299   1.000000
   14      -10.221214   1.000000
   15       -9.848996   1.000000
   16       -9.808981   1.000000
   17       -9.029519   1.000000
   18       -9.023174   1.000000
   19       -8.976128   1.000000
   20       -8.712679   1.000000
   21       -8.588335   1.000000
   22       -8.559609   1.000000
   23       -8.284112   1.000000
   24       -8.183041   1.000000
   25       -8.068148   1.000000
   26       -8.059912   1.000000
   27       -7.399812   1.000000
   28       -7.298084   1.000000
   29       -6.826112   1.000000
   30       -6.607856   1.000000
   31       -6.566238   1.000000
   32       -6.254125   1.000000
   33       -6.113543   1.000000
   34       -6.031305   1.000000
   35       -5.775630   1.000000
   36       -5.678923   1.000000
   37       -5.583544   1.000000
   38       -5.564074   1.000000
   39       -5.380022   1.000000
   40       -5.253188   1.000000
   41       -5.221010   1.000000
   42       -5.182839   1.000000
   43       -5.134411   1.000000
   44       -4.951437   1.000000
   45       -4.910315   1.000000
   46       -4.840041   1.000000
   47       -4.829863   1.000000
   48       -4.689272   1.000000
   49       -4.667849   1.000000
   50       -4.609289   1.000000
   51       -4.565908   1.000000
   52       -4.492334   1.000000
   53       -4.434354   1.000000
   54       -4.421805   1.000000
   55       -4.229943   1.000000
   56       -4.129018   1.000000
   57       -4.084495   1.000000
   58       -4.078127   1.000000
   59       -3.975659   1.000000
   60       -3.849075   1.000000
   61       -3.704192   1.000000
   62       -3.602251   1.000000
   63       -3.521967   1.000000
   64       -3.485746   1.000000
   65       -3.458233   1.000000
   66       -3.441894   1.000000
   67       -3.354258   1.000000
   68       -3.312454   1.000000
   69       -3.257953   1.000000
   70       -3.178745   1.000000
   71       -3.173286   1.000000
   72       -2.880776   1.000000
   73       -2.776576   1.000000
   74       -2.602844   1.000000
   75       -2.544334   1.000000
   76       -2.402657   1.000000
   77       -2.353302   1.000000
   78       -2.253131   1.000000
   79       -2.163916   1.000000
   80       -2.148439   1.000000
   81       -2.010914   1.000000
   82       -1.813107   1.000000
   83       -1.601735   1.000000
   84       -1.336534   1.000000
   85       -1.284176   1.000000
   86       -1.166411   1.000000
   87       -1.098920   1.000000
   88       -1.008393   1.000000
   89       -0.982228   1.000000
   90       -0.424152   1.000000
   91       -0.397730   1.000000
   92       -0.230145   1.001387
   93       -0.101440   1.035000
   94       -0.007560   0.691642
   95        0.045240   0.262242
   96        0.161764  -0.029397
   97        0.195496  -0.014539
   98        0.420563  -0.000000
   99        0.536803  -0.000000
  100        0.562345  -0.000000
  101        0.652876  -0.000000
  102        0.705989  -0.000000
  103        0.747427  -0.000000
  104        0.767123  -0.000000
  105        0.868475  -0.000000
  106        1.186815  -0.000000
  107        1.218383  -0.000000
  108        1.256013  -0.000000
  109        1.283197  -0.000000
  110        1.370550  -0.000000
  111        1.385411  -0.000000
  112        1.424116  -0.000000
  113        1.458775  -0.000000
  114        1.533004  -0.000000
  115        1.599014  -0.000000
  116        1.680369  -0.000000
  117        1.691452  -0.000000
  118        1.827245  -0.000000
  119        1.851206  -0.000000
  120        1.890548  -0.000000
  121        1.955541  -0.000000
  122        1.982167  -0.000000
  123        2.028895  -0.000000
  124        2.112787  -0.000000
  125        2.190506  -0.000000
  126        2.375739  -0.000000
  127        2.478201  -0.000000
  128        3.627530   0.000000

  0.1111111E+00  0.3729374E-15  0.3860503E-15  0.6734007E-02
    1      -14.030744   1.000000
    2      -12.708724   1.000000
    3      -12.662747   1.000000
    4      -11.991450   1.000000
    5      -11.635950   1.000000
    6      -11.252586   1.000000
    7      -11.230770   1.000000
    8      -11.201507   1.000000
    9      -11.132708   1.000000
   10      -10.783432   1.000000
   11      -10.758059   1.000000
   12      -10.412377   1.000000
   13      -10.284168   1.000000
   14      -10.215377   1.000000
   15       -9.836642   1.000000
   16       -9.798288   1.000000
   17       -9.036695   1.000000
   18       -9.005609   1.000000
   19       -8.970549   1.000000
   20       -8.726422   1.000000
   21       -8.599252   1.000000
   22       -8.555149   1.000000
   23       -8.340275   1.000000
   24       -8.193569   1.000000
   25       -8.096668   1.000000
   26       -8.054196   1.000000
   27       -7.489379   1.000000
   28       -7.299016   1.000000
   29       -6.773618   1.000000
   30       -6.579738   1.000000
   31       -6.543569   1.000000
   32       -6.229155   1.000000
   33       -6.087586   1.000000
   34       -6.013657   1.000000
   35       -5.757734   1.000000
   36       -5.677357   1.000000
   37       -5.592202   1.000000
   38       -5.494801   1.000000
   39       -5.475438   1.000000
   40       -5.296434   1.000000
   41       -5.207110   1.000000
   42       -5.124265   1.000000
   43       -5.098730   1.000000
   44       -4.934731   1.000000
   45       -4.876177   1.000000
   46       -4.823360   1.000000
   47       -4.810844   1.000000
   48       -4.722699   1.000000
   49       -4.669668   1.000000
   50       -4.590486   1.000000
   51       -4.537624   1.000000
   52       -4.467668   1.000000
   53       -4.432728   1.000000
   54       -4.392448   1.000000
   55       -4.233035   1.000000
   56       -4.147197   1.000000
   57       -4.101208   1.000000
   58       -4.061834   1.000000
   59       -3.983062   1.000000
   60       -3.847647   1.000000
   61       -3.734085   1.000000
   62       -3.588481   1.000000
   63       -3.517802   1.000000
   64       -3.484535   1.000000
   65       -3.451665   1.000000
   66       -3.433237   1.000000
   67       -3.351611   1.000000
   68       -3.312630   1.000000
   69       -3.247738   1.000000
   70       -3.233229   1.000000
   71       -3.167207   1.000000
   72       -2.919058   1.000000
   73       -2.835711   1.000000
   74       -2.588912   1.000000
   75       -2.536800   1.000000
   76       -2.448789   1.000000
   77       -2.382824   1.000000
   78       -2.291314   1.000000
   79       -2.187417   1.000000
   80       -2.149592   1.000000
   81       -2.011558   1.000000
   82       -1.711331   1.000000
   83       -1.642914   1.000000
   84       -1.361489   1.000000
   85       -1.312042   1.000000
   86       -1.131071   1.000000
   87       -1.070516   1.000000
   88       -1.017577   1.000000
   89       -0.870855   1.000000
   90       -0.491873   1.000000
   91       -0.440982   1.000000
   92       -0.283678   1.000096
   93       -0.080775   1.021166
   94        0.043961   0.271656
   95        0.107885  -0.014883
   96        0.159777  -0.030222
   97        0.196177  -0.014277
   98        0.400386  -0.000000
   99        0.504377  -0.000000
  100        0.560091  -0.000000
  101        0.659418  -0.000000
  102        0.707047  -0.000000
  103        0.785023  -0.000000
  104        0.801767  -0.000000
  105        0.891373  -0.000000
  106        1.192772  -0.000000
  107        1.216607  -0.000000
  108        1.237875  -0.000000
  109        1.299098  -0.000000
  110        1.372324  -0.000000
  111        1.384374  -0.000000
  112        1.436200  -0.000000
  113        1.469476  -0.000000
  114        1.579210  -0.000000
  115        1.601174  -0.000000
  116        1.664618  -0.000000
  117        1.681929  -0.000000
  118        1.852698  -0.000000
  119        1.881987  -0.000000
  120        1.900122  -0.000000
  121        1.957157  -0.000000
  122        1.978775  -0.000000
  123        2.067895  -0.000000
  124        2.174066  -0.000000
  125        2.341132  -0.000000
  126        2.719485  -0.000000
  127        2.875842   0.000000
  128        3.835121   0.000000

  0.2222222E+00  0.3922785E-15  0.3630220E-15  0.6734007E-02
    1      -13.950716   1.000000
    2      -12.923150   1.000000
    3      -12.610864   1.000000
    4      -11.949467   1.000000
    5      -11.596594   1.000000
    6      -11.279396   1.000000
    7      -11.213585   1.000000
    8      -11.193597   1.000000
    9      -11.121166   1.000000
   10      -10.774264   1.000000
   11      -10.744834   1.000000
   12      -10.483317   1.000000
   13      -10.280331   1.000000
   14      -10.206101   1.000000
   15       -9.794658   1.000000
   16       -9.762254   1.000000
   17       -9.072381   1.000000
   18       -8.992814   1.000000
   19       -8.891140   1.000000
   20       -8.772833   1.000000
   21       -8.650268   1.000000
   22       -8.551309   1.000000
   23       -8.454461   1.000000
   24       -8.257586   1.000000
   25       -8.173726   1.000000
   26       -7.964189   1.000000
   27       -7.703054   1.000000
   28       -7.260145   1.000000
   29       -6.691163   1.000000
   30       -6.528487   1.000000
   31       -6.498846   1.000000
   32       -6.263893   1.000000
   33       -6.000548   1.000000
   34       -5.944826   1.000000
   35       -5.827443   1.000000
   36       -5.668040   1.000000
   37       -5.607492   1.000000
   38       -5.413941   1.000000
   39       -5.345033   1.000000
   40       -5.301076   1.000000
   41       -5.174328   1.000000
   42       -5.076458   1.000000
   43       -5.017355   1.000000
   44       -5.005473   1.000000
   45       -4.904950   1.000000
   46       -4.806317   1.000000
   47       -4.734072   1.000000
   48       -4.692448   1.000000
   49       -4.639210   1.000000
   50       -4.543965   1.000000
   51       -4.472031   1.000000
   52       -4.448519   1.000000
   53       -4.404891   1.000000
   54       -4.330621   1.000000
   55       -4.243165   1.000000
   56       -4.173922   1.000000
   57       -4.135144   1.000000
   58       -4.032215   1.000000
   59       -3.984417   1.000000
   60       -3.859757   1.000000
   61       -3.764788   1.000000
   62       -3.595110   1.000000
   63       -3.547094   1.000000
   64       -3.491296   1.000000
   65       -3.480491   1.000000
   66       -3.415428   1.000000
   67       -3.383658   1.000000
   68       -3.313486   1.000000
   69       -3.246449   1.000000
   70       -3.219654   1.000000
   71       -3.145397   1.000000
   72       -2.985774   1.000000
   73       -2.941296   1.000000
   74       -2.631557   1.000000
   75       -2.558371   1.000000
   76       -2.505621   1.000000
   77       -2.435608   1.000000
   78       -2.389324   1.000000
   79       -2.267937   1.000000
   80       -2.187878   1.000000
   81       -1.938678   1.000000
   82       -1.767950   1.000000
   83       -1.485153   1.000000
   84       -1.428847   1.000000
   85       -1.377340   1.000000
   86       -1.053687   1.000000
   87       -1.011883   1.000000
   88       -0.957957   1.000000
   89       -0.644369   1.000000
   90       -0.612805   1.000000
   91       -0.533731   1.000000
   92       -0.414364   1.000000
   93       -0.003957   0.663441
   94        0.058868   0.170162
   95        0.099652   0.000689
   96        0.183365  -0.019609
   97        0.353216  -0.000010
   98        0.375438  -0.000002
   99        0.488177  -0.000000
  100        0.518998  -0.000000
  101        0.619662  -0.000000
  102        0.754584  -0.000000
  103        0.846178  -0.000000
  104        0.864655  -0.000000
  105        0.941793  -0.000000
  106        1.154124  -0.000000
  107        1.248437  -0.000000
  108        1.262770  -0.000000
  109        1.307029  -0.000000
  110        1.364459  -0.000000
  111        1.419838  -0.000000
  112        1.433673  -0.000000
  113        1.517469  -0.000000
  114        1.590532  -0.000000
  115        1.634920  -0.000000
  116        1.649827  -0.000000
  117        1.709572  -0.000000
  118        1.826177  -0.000000
  119        1.855797  -0.000000
  120        1.881551  -0.000000
  121        1.942019  -0.000000
  122        1.975574  -0.000000
  123        2.055280  -0.000000
  124        2.193167  -0.000000
  125        2.245719  -0.000000
  126        2.609160  -0.000000
  127        2.754165   0.000000
  128        3.741093   0.000000

  0.3333333E+00  0.3713828E-15  0.3468587E-15  0.6734007E-02
    1      -13.820058   1.000000
    2      -13.179886   1.000000
    3      -12.498935   1.000000
    4      -12.016702   1.000000
    5      -11.544360   1.000000
    6      -11.308022   1.000000
    7      -11.199358   1.000000
    8      -11.184849   1.000000
    9      -11.038258   1.000000
   10      -10.760026   1.000000
   11      -10.726037   1.000000
   12      -10.607156   1.000000
   13      -10.281523   1.000000
   14      -10.206699   1.000000
   15       -9.717398   1.000000
   16       -9.699758   1.000000
   17       -9.154962   1.000000
   18       -8.985419   1.000000
   19       -8.828005   1.000000
   20       -8.770848   1.000000
   21       -8.720395   1.000000
   22       -8.558946   1.000000
   23       -8.524711   1.000000
   24       -8.344381   1.000000
   25       -8.263890   1.000000
   26       -7.972745   1.000000
   27       -7.769623   1.000000
   28       -7.162002   1.000000
   29       -6.720552   1.000000
   30       -6.489957   1.000000
   31       -6.463735   1.000000
   32       -6.361968   1.000000
   33       -6.104432   1.000000
   34       -5.855634   1.000000
   35       -5.764579   1.000000
   36       -5.541267   1.000000
   37       -5.492469   1.000000
   38       -5.324470   1.000000
   39       -5.283150   1.000000
   40       -5.220493   1.000000
   41       -5.200811   1.000000
   42       -5.093856   1.000000
   43       -5.043845   1.000000
   44       -4.934751   1.000000
   45       -4.867266   1.000000
   46       -4.790334   1.000000
   47       -4.723391   1.000000
   48       -4.663024   1.000000
   49       -4.558479   1.000000
   50       -4.535747   1.000000
   51       -4.446580   1.000000
   52       -4.388818   1.000000
   53       -4.337826   1.000000
   54       -4.277009   1.000000
   55       -4.251084   1.000000
   56       -4.203703   1.000000
   57       -4.111004   1.000000
   58       -4.005514   1.000000
   59       -3.984423   1.000000
   60       -3.887420   1.000000
   61       -3.754182   1.000000
   62       -3.722893   1.000000
   63       -3.584582   1.000000
   64       -3.551434   1.000000
   65       -3.480822   1.000000
   66       -3.450748   1.000000
   67       -3.392537   1.000000
   68       -3.289681   1.000000
   69       -3.241536   1.000000
   70       -3.207953   1.000000
   71       -3.105134   1.000000
   72       -2.994012   1.000000
   73       -2.937315   1.000000
   74       -2.815240   1.000000
   75       -2.632773   1.000000
   76       -2.560584   1.000000
   77       -2.513118   1.000000
   78       -2.424733   1.000000
   79       -2.326483   1.000000
   80       -2.228111   1.000000
   81       -1.959228   1.000000
   82       -1.796086   1.000000
   83       -1.565357   1.000000
   84       -1.453594   1.000000
   85       -1.212400   1.000000
   86       -1.018982   1.000000
   87       -0.882317   1.000000
   88       -0.848224   1.000000
   89       -0.765971   1.000000
   90       -0.622144   1.000000
   91       -0.550983   1.000000
   92       -0.307401   1.000024
   93       -0.108502   1.035409
   94        0.038009   0.316902
   95        0.117907  -0.027200
   96        0.281245  -0.000564
   97        0.329437  -0.000043
   98        0.366076  -0.000004
   99        0.441290  -0.000000
  100        0.586896  -0.000000
  101        0.780700  -0.000000
  102        0.837913  -0.000000
  103        0.869279  -0.000000
  104        0.886913  -0.000000
  105        0.988383  -0.000000
  106        1.022583  -0.000000
  107        1.238908  -0.000000
  108        1.339014  -0.000000
  109        1.373765  -0.000000
  110        1.402751  -0.000000
  111        1.421742  -0.000000
  112        1.482392  -0.000000
  113        1.517496  -0.000000
  114        1.561328  -0.000000
  115        1.656980  -0.000000
  116        1.678383  -0.000000
  117        1.771111  -0.000000
  118        1.783989  -0.000000
  119        1.822650  -0.000000
  120        1.853881  -0.000000
  121        1.881856  -0.000000
  122        1.935990  -0.000000
  123        1.984828  -0.000000
  124        1.998429  -0.000000
  125        2.119980  -0.000000
  126        2.319254  -0.000000
  127        2.668876  -0.000000
  128        3.587857   0.000000

  0.4444444E+00  0.3870091E-15  0.3932070E-15  0.6734007E-02
    1      -13.643476   1.000000
    2      -13.425039   1.000000
    3      -12.362102   1.000000
    4      -12.152826   1.000000
    5      -11.502202   1.000000
    6      -11.320292   1.000000
    7      -11.190902   1.000000
    8      -11.177981   1.000000
    9      -10.923978   1.000000
   10      -10.770155   1.000000
   11      -10.729741   1.000000
   12      -10.707884   1.000000
   13      -10.287454   1.000000
   14      -10.214100   1.000000
   15       -9.640314   1.000000
   16       -9.629158   1.000000
   17       -9.258096   1.000000
   18       -8.979331   1.000000
   19       -8.874620   1.000000
   20       -8.833553   1.000000
   21       -8.595747   1.000000
   22       -8.568035   1.000000
   23       -8.478522   1.000000
   24       -8.401261   1.000000
   25       -8.324626   1.000000
   26       -8.234863   1.000000
   27       -7.555738   1.000000
   28       -7.132594   1.000000
   29       -6.792832   1.000000
   30       -6.492098   1.000000
   31       -6.451063   1.000000
   32       -6.418526   1.000000
   33       -6.251292   1.000000
   34       -5.688935   1.000000
   35       -5.599346   1.000000
   36       -5.507865   1.000000
   37       -5.400148   1.000000
   38       -5.372137   1.000000
   39       -5.310564   1.000000
   40       -5.240643   1.000000
   41       -5.159632   1.000000
   42       -5.069411   1.000000
   43       -4.974958   1.000000
   44       -4.890663   1.000000
   45       -4.830278   1.000000
   46       -4.759282   1.000000
   47       -4.708428   1.000000
   48       -4.689842   1.000000
   49       -4.571700   1.000000
   50       -4.475442   1.000000
   51       -4.420343   1.000000
   52       -4.396972   1.000000
   53       -4.336941   1.000000
   54       -4.255113   1.000000
   55       -4.173791   1.000000
   56       -4.153415   1.000000
   57       -4.113090   1.000000
   58       -4.009565   1.000000
   59       -3.938300   1.000000
   60       -3.919470   1.000000
   61       -3.854084   1.000000
   62       -3.729966   1.000000
   63       -3.646055   1.000000
   64       -3.581139   1.000000
   65       -3.526739   1.000000
   66       -3.429440   1.000000
   67       -3.379913   1.000000
   68       -3.292577   1.000000
   69       -3.250995   1.000000
   70       -3.219867   1.000000
   71       -3.080663   1.000000
   72       -2.973160   1.000000
   73       -2.928859   1.000000
   74       -2.802269   1.000000
   75       -2.731918   1.000000
   76       -2.664991   1.000000
   77       -2.624323   1.000000
   78       -2.440142   1.000000
   79       -2.285548   1.000000
   80       -2.220448   1.000000
   81       -2.101315   1.000000
   82       -1.760100   1.000000
   83       -1.647270   1.000000
   84       -1.430734   1.000000
   85       -1.072283   1.000000
   86       -1.051533   1.000000
   87       -0.909380   1.000000
   88       -0.838946   1.000000
   89       -0.658769   1.000000
   90       -0.600509   1.000000
   91       -0.545974   1.000000
   92       -0.224744   1.001750
   93       -0.183926   1.008072
   94        0.011649   0.534888
   95        0.087188   0.035292
   96        0.256984  -0.001700
   97        0.329259  -0.000043
   98        0.373193  -0.000003
   99        0.579826  -0.000000
  100        0.603420  -0.000000
  101        0.765948  -0.000000
  102        0.792465  -0.000000
  103        0.861173  -0.000000
  104        0.886509  -0.000000
  105        1.145214  -0.000000
  106        1.189324  -0.000000
  107        1.225521  -0.000000
  108        1.303133  -0.000000
  109        1.409577  -0.000000
  110        1.432820  -0.000000
  111        1.490172  -0.000000
  112        1.505836  -0.000000
  113        1.518533  -0.000000
  114        1.565356  -0.000000
  115        1.585194  -0.000000
  116        1.670683  -0.000000
  117        1.705666  -0.000000
  118        1.737483  -0.000000
  119        1.769878  -0.000000
  120        1.809088  -0.000000
  121        1.816049  -0.000000
  122        1.896746  -0.000000
  123        1.975680  -0.000000
  124        2.090714  -0.000000
  125        2.159690  -0.000000
  126        2.212950  -0.000000
  127        2.484784  -0.000000
  128        3.403622   0.000000

  0.3742002E-15  0.9090909E-01  0.3596334E-15  0.6734007E-02
    1      -14.024550   1.000000
    2      -12.683639   1.000000
    3      -12.573531   1.000000
    4      -12.014966   1.000000
    5      -11.631477   1.000000
    6      -11.427292   1.000000
    7      -11.375001   1.000000
    8      -11.203570   1.000000
    9      -11.105577   1.000000
   10      -10.788845   1.000000
   11      -10.741674   1.000000
   12      -10.371093   1.000000
   13      -10.244220   1.000000
   14      -10.170677   1.000000
   15       -9.841833   1.000000
   16       -9.796435   1.000000
   17       -9.142433   1.000000
   18       -9.039929   1.000000
   19       -8.982747   1.000000
   20       -8.680595   1.000000
   21       -8.644037   1.000000
   22       -8.533128   1.000000
   23       -8.108928   1.000000
   24       -8.064277   1.000000
   25       -7.931559   1.000000
   26       -7.922391   1.000000
   27       -7.450850   1.000000
   28       -7.265515   1.000000
   29       -6.791425   1.000000
   30       -6.645442   1.000000
   31       -6.558526   1.000000
   32       -6.238911   1.000000
   33       -6.142087   1.000000
   34       -6.014071   1.000000
   35       -5.781598   1.000000
   36       -5.696730   1.000000
   37       -5.563152   1.000000
   38       -5.518287   1.000000
   39       -5.439039   1.000000
   40       -5.316237   1.000000
   41       -5.235532   1.000000
   42       -5.183710   1.000000
   43       -5.133243   1.000000
   44       -5.085130   1.000000
   45       -4.956725   1.000000
   46       -4.855692   1.000000
   47       -4.834269   1.000000
   48       -4.780860   1.000000
   49       -4.675829   1.000000
   50       -4.613818   1.000000
   51       -4.594452   1.000000
   52       -4.486170   1.000000
   53       -4.438225   1.000000
   54       -4.396202   1.000000
   55       -4.304343   1.000000
   56       -4.154637   1.000000
   57       -4.079379   1.000000
   58       -4.010860   1.000000
   59       -3.998046   1.000000
   60       -3.887650   1.000000
   61       -3.649202   1.000000
   62       -3.601777   1.000000
   63       -3.540992   1.000000
   64       -3.505261   1.000000
   65       -3.468360   1.000000
   66       -3.408781   1.000000
   67       -3.359797   1.000000
   68       -3.305230   1.000000
   69       -3.278517   1.000000
   70       -3.160703   1.000000
   71       -3.124169   1.000000
   72       -2.958311   1.000000
   73       -2.882824   1.000000
   74       -2.564366   1.000000
   75       -2.457930   1.000000
   76       -2.429820   1.000000
   77       -2.361235   1.000000
   78       -2.242516   1.000000
   79       -2.162496   1.000000
   80       -2.111917   1.000000
   81       -2.019955   1.000000
   82       -1.833242   1.000000
   83       -1.530262   1.000000
   84       -1.363196   1.000000
   85       -1.310921   1.000000
   86       -1.210987   1.000000
   87       -1.105358   1.000000
   88       -1.061539   1.000000
   89       -1.013933   1.000000
   90       -0.558047   1.000000
   91       -0.407445   1.000000
   92       -0.322105   1.000010
   93       -0.119512   1.033346
   94       -0.055616   0.964638
   95       -0.027070   0.828310
   96        0.129179  -0.034028
   97        0.197648  -0.013722
   98        0.372732  -0.000003
   99        0.408596  -0.000000
  100        0.531256  -0.000000
  101        0.674989  -0.000000
  102        0.805744  -0.000000
  103        0.836320  -0.000000
  104        0.931245  -0.000000
  105        0.949508  -0.000000
  106        1.121217  -0.000000
  107        1.158235  -0.000000
  108        1.272437  -0.000000
  109        1.286334  -0.000000
  110        1.371471  -0.000000
  111        1.399889  -0.000000
  112        1.437529  -0.000000
  113        1.480627  -0.000000
  114        1.551290  -0.000000
  115        1.619844  -0.000000
  116        1.672436  -0.000000
  117        1.695895  -0.000000
  118        1.801734  -0.000000
  119        1.822897  -0.000000
  120        1.902190  -0.000000
  121        1.956945  -0.000000
  122        2.008820  -0.000000
  123        2.037619  -0.000000
  124        2.072352  -0.000000
  125        2.260447  -0.000000
  126        2.300019  -0.000000
  127        2.364517  -0.000000
  128        2.517762  -0.000000

  0.1111111E+00  0.9090909E-01  0.4822234E-15  0.6734007E-02
    1      -13.975869   1.000000
    2      -12.760509   1.000000
    3      -12.631094   1.000000
    4      -11.947293   1.000000
    5      -11.606485   1.000000
    6      -11.471239   1.000000
    7      -11.321009   1.000000
    8      -11.203985   1.000000
    9      -11.131605   1.000000
   10      -10.790161   1.000000
   11      -10.682818   1.000000
   12      -10.411819   1.000000
   13      -10.274592   1.000000
   14      -10.193167   1.000000
   15       -9.806908   1.000000
   16       -9.751567   1.000000
   17       -9.171325   1.000000
   18       -9.025734   1.000000
   19       -8.934047   1.000000
   20       -8.741512   1.000000
   21       -8.676473   1.000000
   22       -8.529948   1.000000
   23       -8.198960   1.000000
   24       -8.040063   1.000000
   25       -7.950602   1.000000
   26       -7.933864   1.000000
   27       -7.588813   1.000000
   28       -7.257518   1.000000
   29       -6.718343   1.000000
   30       -6.661078   1.000000
   31       -6.465510   1.000000
   32       -6.207886   1.000000
   33       -6.135373   1.000000
   34       -5.981618   1.000000
   35       -5.798036   1.000000
   36       -5.679081   1.000000
   37       -5.561032   1.000000
   38       -5.459315   1.000000
   39       -5.433283   1.000000
   40       -5.362007   1.000000
   41       -5.207682   1.000000
   42       -5.177087   1.000000
   43       -5.103600   1.000000
   44       -5.053495   1.000000
   45       -4.916136   1.000000
   46       -4.840848   1.000000
   47       -4.783785   1.000000
   48       -4.733283   1.000000
   49       -4.669302   1.000000
   50       -4.572395   1.000000
   51       -4.552783   1.000000
   52       -4.505080   1.000000
   53       -4.427491   1.000000
   54       -4.369122   1.000000
   55       -4.307127   1.000000
   56       -4.169751   1.000000
   57       -4.075133   1.000000
   58       -4.018800   1.000000
   59       -3.980615   1.000000
   60       -3.891511   1.000000
   61       -3.700346   1.000000
   62       -3.613382   1.000000
   63       -3.581523   1.000000
   64       -3.523174   1.000000
   65       -3.464305   1.000000
   66       -3.398059   1.000000
   67       -3.320316   1.000000
   68       -3.279757   1.000000
   69       -3.263248   1.000000
   70       -3.204803   1.000000
   71       -3.155669   1.000000
   72       -3.001106   1.000000
   73       -2.926840   1.000000
   74       -2.586098   1.000000
   75       -2.511750   1.000000
   76       -2.487322   1.000000
   77       -2.394623   1.000000
   78       -2.319320   1.000000
   79       -2.187596   1.000000
   80       -2.108624   1.000000
   81       -1.990229   1.000000
   82       -1.813473   1.000000
   83       -1.503770   1.000000
   84       -1.447239   1.000000
   85       -1.387837   1.000000
   86       -1.159148   1.000000
   87       -1.059801   1.000000
   88       -0.949290   1.000000
   89       -0.850132   1.000000
   90       -0.640779   1.000000
   91       -0.464145   1.000000
   92       -0.337077   1.000004
   93       -0.109862   1.035310
   94       -0.003906   0.663032
   95        0.073006   0.092801
   96        0.160611  -0.029880
   97        0.176666  -0.022655
   98        0.297956  -0.000244
   99        0.365835  -0.000004
  100        0.582464  -0.000000
  101        0.729695  -0.000000
  102        0.787298  -0.000000
  103        0.859854  -0.000000
  104        0.923284  -0.000000
  105        0.970847  -0.000000
  106        1.102501  -0.000000
  107        1.226235  -0.000000
  108        1.243047  -0.000000
  109        1.287848  -0.000000
  110        1.331391  -0.000000
  111        1.412456  -0.000000
  112        1.461778  -0.000000
  113        1.510360  -0.000000
  114        1.581150  -0.000000
  115        1.623336  -0.000000
  116        1.645901  -0.000000
  117        1.704502  -0.000000
  118        1.785908  -0.000000
  119        1.862351  -0.000000
  120        1.901879  -0.000000
  121        1.940707  -0.000000
  122        2.014508  -0.000000