   24   24   60    1
  0.8144829E+01  0.6078000E-09  0.6078000E-09  0.6110000E-09  0.5000000E-15
   1.0000000000000000E-004
  CAR 
 Name                                    
     88     60     60

  0.3742002E-15  0.3742002E-15  0.3742002E-15  0.1371742E-02
    1       -5.699189   1.000000
    2       -3.438880   1.000000
    3       -1.581124   1.000000
    4       -1.581118   1.000000
    5       -1.581116   1.000000
    6       -1.497593   1.000000
    7       -1.497591   1.000000
    8       -1.497587   1.000000
    9       -1.353065   1.000000
   10       -1.353059   1.000000
   11       -1.353056   1.000000
   12        0.203297   1.000000
   13        0.628814   1.000000
   14        0.628817   1.000000
   15        0.628821   1.000000
   16        3.235491   1.000000
   17        3.235492   1.000000
   18        3.235493   1.000000
   19        4.092664   1.000000
   20        4.092665   1.000000
   21        4.092667   1.000000
   22        4.705292   1.000000
   23        4.705298   1.000000
   24        4.705300   1.000000
   25        4.801700   1.000000
   26        4.801702   1.000000
   27        4.801705   1.000000
   28        5.137643   1.000000
   29        5.137647   1.000000
   30        5.187822   1.000000
   31        5.187826   1.000000
   32        5.187829   1.000000
   33        5.583226   1.000000
   34        5.583227   1.000000
   35        5.583229   1.000000
   36        5.854386   1.000000
   37        6.541249   1.000000
   38        7.277194   1.000000
   39        7.277196   1.000000
   40        7.788246   1.000000
   41        7.788252   1.000000
   42        8.100764   1.000000
   43        8.100766   1.000000
   44        8.973689   0.754563
   45        8.973692   0.754546
   46        8.973693   0.754534
   47        9.412208  -0.000000
   48        9.412209  -0.000000
   49        9.777786  -0.000000
   50       10.036893  -0.000000
   51       10.036897  -0.000000
   52       10.037052  -0.000000
   53       10.207663  -0.000000
   54       10.207669  -0.000000
   55       10.210536  -0.000000
   56       10.245377  -0.000000
   57       10.245381  -0.000000
   58       10.248008  -0.000000
   59       10.598553  -0.000000
   60       10.598554  -0.000000

  0.1111111E+00  0.3745146E-15  0.3742002E-15  0.8230453E-02
    1       -5.639669   1.000000
    2       -3.408863   1.000000
    3       -2.243704   1.000000
    4       -1.807356   1.000000
    5       -1.807354   1.000000
    6       -1.720686   1.000000
    7       -1.587041   1.000000
    8       -1.587035   1.000000
    9       -0.958401   1.000000
   10       -0.958398   1.000000
   11       -0.556397   1.000000
   12        0.279366   1.000000
   13        0.666155   1.000000
   14        0.666158   1.000000
   15        0.846303   1.000000
   16        3.185844   1.000000
   17        3.185845   1.000000
   18        3.292814   1.000000
   19        3.776506   1.000000
   20        4.032650   1.000000
   21        4.032652   1.000000
   22        4.283284   1.000000
   23        4.283286   1.000000
   24        4.776374   1.000000
   25        4.776378   1.000000
   26        4.819438   1.000000
   27        4.945886   1.000000
   28        4.981305   1.000000
   29        5.136852   1.000000
   30        5.207913   1.000000
   31        5.229056   1.000000
   32        5.229061   1.000000
   33        5.619485   1.000000
   34        5.873003   1.000000
   35        6.072569   1.000000
   36        6.072570   1.000000
   37        6.452629   1.000000
   38        6.624308   1.000000
   39        6.668271   1.000000
   40        7.977921   1.000000
   41        8.151725   1.000000
   42        8.363201   1.000000
   43        8.431718   1.000000
   44        8.803892   1.007592
   45        8.803895   1.007593
   46        8.986311   0.658972
   47        9.398337  -0.000000
   48        9.562999  -0.000000
   49        9.791663  -0.000000
   50        9.986922  -0.000000
   51        9.986926  -0.000000
   52       10.030766  -0.000000
   53       10.159165  -0.000000
   54       10.199449  -0.000000
   55       10.202392  -0.000000
   56       10.204445  -0.000000
   57       10.279682  -0.000000
   58       10.279750  -0.000000
   59       10.518692  -0.000000
   60       10.544609  -0.000000

  0.2222222E+00  0.3685699E-15  0.3742002E-15  0.8230453E-02
    1       -5.462314   1.000000
    2       -3.318723   1.000000
    3       -2.994759   1.000000
    4       -2.089607   1.000000
    5       -2.089605   1.000000
    6       -2.030774   1.000000
    7       -1.601628   1.000000
    8       -1.601623   1.000000
    9       -0.426616   1.000000
   10       -0.426614   1.000000
   11        0.344420   1.000000
   12        0.504298   1.000000
   13        0.766196   1.000000
   14        0.766200   1.000000
   15        1.387808   1.000000
   16        3.054598   1.000000
   17        3.054599   1.000000
   18        3.204789   1.000000
   19        3.464135   1.000000
   20        3.504041   1.000000
   21        3.504042   1.000000
   22        3.917167   1.000000
   23        3.917170   1.000000
   24        4.536592   1.000000
   25        4.868661   1.000000
   26        4.919846   1.000000
   27        4.919850   1.000000
   28        5.131094   1.000000
   29        5.269695   1.000000
   30        5.327666   1.000000
   31        5.343690   1.000000
   32        5.343695   1.000000
   33        5.718015   1.000000
   34        5.718138   1.000000
   35        5.919369   1.000000
   36        5.925926   1.000000
   37        6.237240   1.000000
   38        6.768689   1.000000
   39        6.768691   1.000000
   40        7.647515   1.000000
   41        8.301658   1.000000
   42        8.413960   1.000000
   43        8.413963   1.000000
   44        9.022847   0.355464
   45        9.050310   0.159608
   46        9.275851  -0.000444
   47        9.358637  -0.000004
   48        9.804043  -0.000000
   49        9.804049  -0.000000
   50        9.831772  -0.000000
   51        9.922534  -0.000000
   52        9.959013  -0.000000
   53       10.023124  -0.000000
   54       10.174661  -0.000000
   55       10.188581  -0.000000
   56       10.201829  -0.000000
   57       10.322297  -0.000000
   58       10.370949  -0.000000
   59       10.432586  -0.000000
   60       10.444114  -0.000000

  0.3333333E+00  0.4145315E-15  0.3742002E-15  0.8230453E-02
    1       -5.170639   1.000000
    2       -3.673228   1.000000
    3       -3.168356   1.000000
    4       -2.374455   1.000000
    5       -2.280226   1.000000
    6       -2.280224   1.000000
    7       -1.617564   1.000000
    8       -1.617559   1.000000
    9        0.155122   1.000000
   10        0.155124   1.000000
   11        0.868030   1.000000
   12        0.892729   1.000000
   13        0.892732   1.000000
   14        1.265590   1.000000
   15        2.109755   1.000000
   16        2.566418   1.000000
   17        2.735082   1.000000
   18        2.735084   1.000000
   19        2.892651   1.000000
   20        2.892651   1.000000
   21        3.747938   1.000000
   22        3.817326   1.000000
   23        3.817328   1.000000
   24        3.872634   1.000000
   25        4.775709   1.000000
   26        4.937955   1.000000
   27        5.051493   1.000000
   28        5.051496   1.000000
   29        5.112062   1.000000
   30        5.235880   1.000000
   31        5.376819   1.000000
   32        5.498643   1.000000
   33        5.498649   1.000000
   34        5.743297   1.000000
   35        5.848155   1.000000
   36        5.980178   1.000000
   37        5.986738   1.000000
   38        7.192600   1.000000
   39        7.412544   1.000000
   40        7.412545   1.000000
   41        8.002408   1.000000
   42        8.002412   1.000000
   43        8.541416   1.000000
   44        9.079393   0.027208
   45        9.298493  -0.000137
   46        9.476424  -0.000000
   47        9.476428  -0.000000
   48        9.588366  -0.000000
   49        9.671833  -0.000000
   50        9.893356  -0.000000
   51       10.043363  -0.000000
   52       10.092168  -0.000000
   53       10.118136  -0.000000
   54       10.119347  -0.000000
   55       10.172604  -0.000000
   56       10.175607  -0.000000
   57       10.398121  -0.000000
   58       10.483554  -0.000000
   59       10.490345  -0.000000
   60       10.602138  -0.000000

  0.4444444E+00  0.3784822E-15  0.3742002E-15  0.8230453E-02
    1       -4.770198   1.000000
    2       -4.268221   1.000000
    3       -2.958273   1.000000
    4       -2.690999   1.000000
    5       -2.376036   1.000000
    6       -2.376034   1.000000
    7       -1.627621   1.000000
    8       -1.627616   1.000000
    9        0.678757   1.000000
   10        0.678759   1.000000
   11        0.985692   1.000000
   12        0.985695   1.000000
   13        1.352830   1.000000
   14        1.931741   1.000000
   15        2.113276   1.000000
   16        2.113278   1.000000
   17        2.183701   1.000000
   18        2.776599   1.000000
   19        2.776600   1.000000
   20        2.939774   1.000000
   21        3.067522   1.000000
   22        3.762283   1.000000
   23        3.762286   1.000000
   24        3.838788   1.000000
   25        4.141260   1.000000
   26        4.639552   1.000000
   27        5.011103   1.000000
   28        5.072245   1.000000
   29        5.127282   1.000000
   30        5.127286   1.000000
   31        5.532639   1.000000
   32        5.621678   1.000000
   33        5.621684   1.000000
   34        5.736763   1.000000
   35        5.960683   1.000000
   36        6.009770   1.000000
   37        6.199675   1.000000
   38        6.692041   1.000000
   39        7.733362   1.000000
   40        7.733367   1.000000
   41        7.895354   1.000000
   42        7.895356   1.000000
   43        8.854619   1.027265
   44        9.134212  -0.034904
   45        9.134215  -0.034904
   46        9.149732  -0.030120
   47        9.215861  -0.005636
   48        9.225810  -0.003927
   49        9.968716  -0.000000
   50       10.026902  -0.000000
   51       10.048145  -0.000000
   52       10.131572  -0.000000
   53       10.141169  -0.000000
   54       10.161752  -0.000000
   55       10.163865  -0.000000
   56       10.237657  -0.000000
   57       10.326997  -0.000000
   58       10.357367  -0.000000
   59       10.760624  -0.000000
   60       10.812113  -0.000000

  0.1111111E+00  0.1111111E+00  0.3742002E-15  0.8230453E-02
    1       -5.521228   1.000000
    2       -3.348775   1.000000
    3       -2.588221   1.000000
    4       -2.588219   1.000000
    5       -1.836899   1.000000
    6       -1.836896   1.000000
    7       -1.451975   1.000000
    8       -1.312025   1.000000
    9       -1.250336   1.000000
   10       -0.078941   1.000000
   11       -0.078939   1.000000
   12        0.429888   1.000000
   13        0.543553   1.000000
   14        1.068919   1.000000
   15        1.068923   1.000000
   16        3.000882   1.000000
   17        3.298117   1.000000
   18        3.298118   1.000000
   19        3.460376   1.000000
   20        3.543075   1.000000
   21        3.543077   1.000000
   22        4.241805   1.000000
   23        4.345319   1.000000
   24        4.345321   1.000000
   25        4.676375   1.000000
   26        4.695657   1.000000
   27        5.110380   1.000000
   28        5.121636   1.000000
   29        5.121637   1.000000
   30        5.264657   1.000000
   31        5.264659   1.000000
   32        5.334668   1.000000
   33        5.917205   1.000000
   34        5.987163   1.000000
   35        6.093112   1.000000
   36        6.112629   1.000000
   37        6.112630   1.000000
   38        6.302591   1.000000
   39        6.762128   1.000000
   40        7.751635   1.000000
   41        8.252565   1.000000
   42        8.375591   1.000000
   43        8.843004   1.021924
   44        8.843005   1.021925
   45        8.872122   1.033890
   46        9.051537   0.152325
   47        9.366557  -0.000002
   48        9.818673  -0.000000
   49        9.839556  -0.000000
   50        9.873095  -0.000000
   51        9.939926  -0.000000
   52        9.939939  -0.000000
   53       10.105220  -0.000000
   54       10.105285  -0.000000
   55       10.189052  -0.000000
   56       10.189483  -0.000000
   57       10.195332  -0.000000
   58       10.442253  -0.000000
   59       10.442600  -0.000000
   60       10.443013  -0.000000

  0.2222222E+00  0.1111111E+00  0.3742002E-15  0.1646091E-01
    1       -5.286696   1.000000
    2       -3.303538   1.000000
    3       -3.228435   1.000000
    4       -2.836599   1.000000
    5       -2.178165   1.000000
    6       -1.925351   1.000000
    7       -1.509520   1.000000
    8       -1.336081   1.000000
    9       -0.689478   1.000000
   10        0.455072   1.000000
   11        0.481345   1.000000
   12        0.724388   1.000000
   13        0.828920   1.000000
   14        1.305918   1.000000
   15        1.711202   1.000000
   16        2.620064   1.000000
   17        2.789077   1.000000
   18        2.931530   1.000000
   19        3.215104   1.000000
   20        3.361847   1.000000
   21        3.521430   1.000000
   22        3.632989   1.000000
   23        4.168760   1.000000
   24        4.282850   1.000000
   25        4.460143   1.000000
   26        4.747349   1.000000
   27        5.034566   1.000000
   28        5.143422   1.000000
   29        5.270391   1.000000
   30        5.339497   1.000000
   31        5.374910   1.000000
   32        5.431291   1.000000
   33        5.510931   1.000000
   34        5.513083   1.000000
   35        6.011318   1.000000
   36        6.074166   1.000000
   37        6.172293   1.000000
   38        6.772756   1.000000
   39        7.361632   1.000000
   40        7.438434   1.000000
   41        7.874719   1.000000
   42        8.448685   1.000000
   43        8.521293   1.000000
   44        8.914962   1.012285
   45        9.302606  -0.000110
   46        9.449181  -0.000000
   47        9.665808  -0.000000
   48        9.665922  -0.000000
   49        9.807251  -0.000000
   50        9.824437  -0.000000
   51        9.869626  -0.000000
   52        9.871257  -0.000000
   53       10.093475  -0.000000
   54       10.151193  -0.000000
   55       10.179925  -0.000000
   56       10.194084  -0.000000
   57       10.275410  -0.000000
   58       10.312604  -0.000000
   59       10.323917  -0.000000
   60       10.433501  -0.000000

  0.3333333E+00  0.1111111E+00  0.3742002E-15  0.1646091E-01
    1       -4.940580   1.000000
    2       -3.940568   1.000000
    3       -3.047882   1.000000
    4       -2.986443   1.000000
    5       -2.514067   1.000000
    6       -1.980265   1.000000
    7       -1.647936   1.000000
    8       -1.258840   1.000000
    9       -0.066219   1.000000
   10        0.464974   1.000000
   11        0.990400   1.000000
   12        1.149207   1.000000
   13        1.506174   1.000000
   14        1.741975   1.000000
   15        1.839431   1.000000
   16        2.291472   1.000000
   17        2.486176   1.000000
   18        2.617593   1.000000
   19        2.973532   1.000000
   20        3.099323   1.000000
   21        3.248067   1.000000
   22        3.458376   1.000000
   23        3.853038   1.000000
   24        4.238211   1.000000
   25        4.240492   1.000000
   26        4.609965   1.000000
   27        4.819122   1.000000
   28        4.877792   1.000000
   29        4.918321   1.000000
   30        5.369009   1.000000
   31        5.458679   1.000000
   32        5.489928   1.000000
   33        5.717376   1.000000
   34        5.835699   1.000000
   35        5.935836   1.000000
   36        6.121575   1.000000
   37        6.213889   1.000000
   38        6.889485   1.000000
   39        7.310796   1.000000
   40        7.447583   1.000000
   41        8.054068   1.000000
   42        8.226679   1.000000
   43        8.727631   1.000305
   44        9.009178   0.468737
   45        9.214881  -0.005832
   46        9.325462  -0.000029
   47        9.333874  -0.000017
   48        9.443232  -0.000000
   49        9.843419  -0.000000
   50        9.938194  -0.000000
   51        9.995720  -0.000000
   52       10.089990  -0.000000
   53       10.091654  -0.000000
   54       10.156823  -0.000000
   55       10.162407  -0.000000
   56       10.192045  -0.000000
   57       10.227669  -0.000000
   58       10.235346  -0.000000
   59       10.441520  -0.000000
   60       10.453411  -0.000000

  0.4444444E+00  0.1111111E+00  0.3742002E-15  0.8230453E-02
    1       -4.489255   1.000000
    2       -4.489250   1.000000
    3       -3.036518   1.000000
    4       -2.808290   1.000000
    5       -2.808285   1.000000
    6       -1.998835   1.000000
    7       -1.694279   1.000000
    8       -1.231977   1.000000
    9        0.329084   1.000000
   10        0.465177   1.000000
   11        1.288027   1.000000
   12        1.390468   1.000000
   13        1.589787   1.000000
   14        1.682350   1.000000
   15        1.682354   1.000000
   16        2.550932   1.000000
   17        2.631537   1.000000
   18        2.631540   1.000000
   19        2.632703   1.000000
   20        3.042071   1.000000
   21        3.209376   1.000000
   22        3.341490   1.000000
   23        3.341493   1.000000
   24        4.216576   1.000000
   25        4.288264   1.000000
   26        4.288269   1.000000
   27        4.770840   1.000000
   28        4.770845   1.000000
   29        4.931791   1.000000
   30        5.403447   1.000000
   31        5.541039   1.000000
   32        5.625217   1.000000
   33        5.625220   1.000000
   34        5.822808   1.000000
   35        6.199617   1.000000
   36        6.199622   1.000000
   37        6.400759   1.000000
   38        6.400762   1.000000
   39        7.263705   1.000000
   40        7.545052   1.000000
   41        8.108281   1.000000
   42        8.422535   1.000000
   43        9.041654   0.214955
   44        9.069190   0.064036
   45        9.069195   0.064017
   46        9.113269  -0.031436
   47        9.113275  -0.031439
   48        9.163872  -0.023811
   49        9.944745  -0.000000
   50        9.944748  -0.000000
   51       10.015284  -0.000000
   52       10.015474  -0.000000
   53       10.090407  -0.000000
   54       10.119815  -0.000000
   55       10.159820  -0.000000
   56       10.203622  -0.000000
   57       10.273337  -0.000000
   58       10.273730  -0.000000
   59       10.507821  -0.000000
   60       10.508124  -0.000000

  0.2222222E+00  0.2222222E+00  0.3742002E-15  0.8230453E-02
    1       -4.997680   1.000000
    2       -3.511076   1.000000
    3       -3.511074   1.000000
    4       -3.077673   1.000000
    5       -2.276962   1.000000
    6       -2.276960   1.000000
    7       -1.065400   1.000000
    8       -0.939675   1.000000
    9       -0.790559   1.000000
   10        0.218836   1.000000
   11        1.080410   1.000000
   12        1.340648   1.000000
   13        1.340651   1.000000
   14        1.757122   1.000000
   15        2.006946   1.000000
   16        2.006950   1.000000
   17        2.564761   1.000000
   18        2.741164   1.000000
   19        2.741165   1.000000
   20        3.480189   1.000000
   21        3.480190   1.000000
   22        3.647631   1.000000
   23        3.840937   1.000000
   24        3.840940   1.000000
   25        4.420232   1.000000
   26        4.566744   1.000000
   27        4.638341   1.000000
   28        4.771315   1.000000
   29        4.846994   1.000000
   30        5.437804   1.000000
   31        5.437807   1.000000
   32        5.647127   1.000000
   33        5.647128   1.000000
   34        5.763341   1.000000
   35        5.876024   1.000000
   36        6.196866   1.000000
   37        6.733661   1.000000
   38        6.733662   1.000000
   39        6.959166   1.000000
   40        7.336030   1.000000
   41        8.085688   1.000000
   42        8.677384   1.000018
   43        8.677386   1.000018
   44        8.686360   1.000031
   45        9.189210  -0.013040
   46        9.512741  -0.000000
   47        9.582976  -0.000000
   48        9.582978  -0.000000
   49        9.746393  -0.000000
   50        9.746394  -0.000000
   51        9.896547  -0.000000
   52        9.927695  -0.000000
   53        9.989917  -0.000000
   54       10.133635  -0.000000
   55       10.134915  -0.000000
   56       10.157357  -0.000000
   57       10.267742  -0.000000
   58       10.376557  -0.000000
   59       10.378505  -0.000000
   60       10.500030  -0.000000

  0.3333333E+00  0.2222222E+00  0.3742002E-15  0.1646091E-01
    1       -4.600538   1.000000
    2       -4.102223   1.000000
    3       -3.615316   1.000000
    4       -2.866688   1.000000
    5       -2.597479   1.000000
    6       -2.326436   1.000000
    7       -0.973863   1.000000
    8       -0.856906   1.000000
    9       -0.216596   1.000000
   10        0.022308   1.000000
   11        1.015978   1.000000
   12        1.554988   1.000000
   13        1.764715   1.000000
   14        2.121451   1.000000
   15        2.196952   1.000000
   16        2.204364   1.000000
   17        2.436661   1.000000
   18        2.643769   1.000000
   19        2.792862   1.000000
   20        2.980987   1.000000
   21        3.351085   1.000000
   22        3.407968   1.000000
   23        3.614793   1.000000
   24        3.845872   1.000000
   25        4.116517   1.000000
   26        4.305535   1.000000
   27        4.439645   1.000000
   28        4.548011   1.000000
   29        4.763344   1.000000
   30        5.511094   1.000000
   31        5.541831   1.000000
   32        5.690397   1.000000
   33        5.719259   1.000000
   34        6.031166   1.000000
   35        6.062002   1.000000
   36        6.419304   1.000000
   37        6.508932   1.000000
   38        6.614079   1.000000
   39        6.913269   1.000000
   40        7.086798   1.000000
   41        8.502505   1.000000
   42        8.675065   1.000015
   43        8.856727   1.028203
   44        8.999266   0.552486
   45        9.034449   0.265885
   46        9.228634  -0.003528
   47        9.363950  -0.000002
   48        9.365787  -0.000002
   49        9.650754  -0.000000
   50        9.722120  -0.000000
   51        9.776099  -0.000000
   52        9.893807  -0.000000
   53        9.998412  -0.000000
   54       10.072454  -0.000000
   55       10.128847  -0.000000
   56       10.140923  -0.000000
   57       10.338121  -0.000000
   58       10.338732  -0.000000
   59       10.363231  -0.000000
   60       10.747736  -0.000000

  0.3333333E+00  0.3333333E+00  0.3742002E-15  0.2743484E-02
    1       -4.156319   1.000000
    2       -4.156315   1.000000
    3       -4.156311   1.000000
    4       -2.625221   1.000000
    5       -2.625216   1.000000
    6       -2.625213   1.000000
    7       -0.424222   1.000000
    8       -0.424219   1.000000
    9       -0.415007   1.000000
   10       -0.415003   1.000000
   11        0.554187   1.000000
   12        2.063998   1.000000
   13        2.064002   1.000000
   14        2.064005   1.000000
   15        2.374078   1.000000
   16        2.428452   1.000000
   17        2.428456   1.000000
   18        2.428459   1.000000
   19        2.924292   1.000000
   20        2.924298   1.000000
   21        2.924301   1.000000
   22        3.815396   1.000000
   23        3.815400   1.000000
   24        3.815403   1.000000
   25        3.865489   1.000000
   26        3.865493   1.000000
   27        3.865496   1.000000
   28        4.693413   1.000000
   29        4.693415   1.000000
   30        5.577401   1.000000
   31        5.577403   1.000000
   32        5.577405   1.000000
   33        6.105750   1.000000
   34        6.105753   1.000000
   35        6.105754   1.000000
   36        6.433982   1.000000
   37        6.433985   1.000000
   38        6.766478   1.000000
   39        6.766480   1.000000
   40        6.766483   1.000000
   41        8.785073   1.003915
   42        8.785076   1.003916
   43        8.785078   1.003916
   44        9.183512  -0.015200
   45        9.183514  -0.015199
   46        9.339326  -0.000012
   47        9.339328  -0.000012
   48        9.339329  -0.000012
   49        9.356959  -0.000004
   50        9.575252  -0.000000
   51        9.575256  -0.000000
   52        9.575258  -0.000000
   53       10.063971  -0.000000
   54       10.064003  -0.000000
   55       10.065537  -0.000000
   56       10.133824  -0.000000
   57       10.372073  -0.000000
   58       10.640014  -0.000000
   59       10.660233  -0.000000
   60       10.683692  -0.000000

  0.3742002E-15  0.3742002E-15  0.1111111E+00  0.2743484E-02
    1       -5.653917   1.000000
    2       -3.562580   1.000000
    3       -1.574003   1.000000
    4       -1.573997   1.000000
    5       -1.573995   1.000000
    6       -1.452346   1.000000
    7       -1.452344   1.000000
    8       -1.452340   1.000000
    9       -1.359693   1.000000
   10       -1.359686   1.000000
   11       -1.359684   1.000000
   12        0.381170   1.000000
   13        0.522594   1.000000
   14        0.522597   1.000000
   15        0.522601   1.000000
   16        3.269930   1.000000
   17        3.269930   1.000000
   18        3.269932   1.000000
   19        4.208017   1.000000
   20        4.208019   1.000000
   21        4.208020   1.000000
   22        4.718727   1.000000
   23        4.718732   1.000000
   24        4.718734   1.000000
   25        4.730294   1.000000
   26        4.730296   1.000000
   27        4.730298   1.000000
   28        5.172068   1.000000
   29        5.172073   1.000000
   30        5.172075   1.000000
   31        5.175057   1.000000
   32        5.175061   1.000000
   33        5.413637   1.000000
   34        5.586285   1.000000
   35        5.586286   1.000000
   36        5.586289   1.000000
   37        6.908805   1.000000
   38        7.321225   1.000000
   39        7.321228   1.000000
   40        7.378420   1.000000
   41        7.378425   1.000000
   42        8.542284   1.000000
   43        8.542287   1.000000
   44        9.084941   0.011347
   45        9.084943   0.011341
   46        9.084945   0.011337
   47        9.304680  -0.000098
   48        9.304681  -0.000098
   49        9.706874  -0.000000
   50       10.042984  -0.000000
   51       10.042985  -0.000000
   52       10.043819  -0.000000
   53       10.149203  -0.000000
   54       10.149207  -0.000000
   55       10.149395  -0.000000
   56       10.238883  -0.000000
   57       10.238886  -0.000000
   58       10.240924  -0.000000
   59       10.521371  -0.000000
   60       10.521374  -0.000000

  0.1111111E+00  0.3745146E-15  0.1111111E+00  0.1646091E-01
    1       -5.594729   1.000000
    2       -3.529579   1.000000
    3       -2.218037   1.000000
    4       -1.783088   1.000000
    5       -1.783086   1.000000
    6       -1.725983   1.000000
    7       -1.583672   1.000000
    8       -1.583666   1.000000
    9       -0.944392   1.000000
   10       -0.944390   1.000000
   11       -0.542983   1.000000
   12        0.453719   1.000000
   13        0.569173   1.000000
   14        0.569176   1.000000
   15        0.748926   1.000000
   16        3.212668   1.000000
   17        3.212669   1.000000
   18        3.326704   1.000000
   19        3.881136   1.000000
   20        4.136336   1.000000
   21        4.136338   1.000000
   22        4.250689   1.000000
   23        4.250691   1.000000
   24        4.751019   1.000000
   25        4.799827   1.000000
   26        4.799831   1.000000
   27        4.975297   1.000000
   28        5.016207   1.000000
   29        5.171583   1.000000
   30        5.182792   1.000000
   31        5.209297   1.000000
   32        5.209301   1.000000
   33        5.423472   1.000000
   34        5.626826   1.000000
   35        6.023873   1.000000
   36        6.023875   1.000000
   37        6.572296   1.000000
   38        6.632668   1.000000
   39        6.819671   1.000000
   40        7.767614   1.000000
   41        7.889969   1.000000
   42        8.696228   1.000055
   43        8.801946   1.007120
   44        8.918762   1.005297
   45        8.918764   1.005292
   46        9.083634   0.014829
   47        9.285916  -0.000267
   48        9.456603  -0.000000
   49        9.726758  -0.000000
   50        9.999239  -0.000000
   51        9.999478  -0.000000
   52       10.047023  -0.000000
   53       10.136137  -0.000000
   54       10.147541  -0.000000
   55       10.148343  -0.000000
   56       10.150017  -0.000000
   57       10.269376  -0.000000
   58       10.438899  -0.000000
   59       10.454137  -0.000000
   60       10.492444  -0.000000

  0.2222222E+00  0.3685699E-15  0.1111111E+00  0.1646091E-01
    1       -5.418375   1.000000
    2       -3.430950   1.000000
    3       -2.965437   1.000000
    4       -2.066111   1.000000
    5       -2.066109   1.000000
    6       -2.057806   1.000000
    7       -1.607201   1.000000
    8       -1.607196   1.000000
    9       -0.412959   1.000000
   10       -0.412957   1.000000
   11        0.355680   1.000000
   12        0.668397   1.000000
   13        0.694355   1.000000
   14        0.694359   1.000000
   15        1.299055   1.000000
   16        3.059056   1.000000
   17        3.059057   1.000000
   18        3.323716   1.000000
   19        3.493846   1.000000
   20        3.493848   1.000000
   21        3.496495   1.000000
   22        4.007284   1.000000
   23        4.007287   1.000000
   24        4.565643   1.000000
   25        4.809155   1.000000
   26        4.954314   1.000000
   27        4.954317   1.000000
   28        5.157515   1.000000
   29        5.216069   1.000000
   30        5.311740   1.000000
   31        5.311745   1.000000
   32        5.360047   1.000000
   33        5.443965   1.000000
   34        5.679012   1.000000
   35        5.739453   1.000000