   71   71   40    1
  0.2199523E+02  0.1053953E-08  0.6141200E-09  0.2412750E-08  0.5000000E-15
   1.0000000000000000E-004
  CAR 
 Name                                    
    266     23    176

  0.3742002E-15  0.3742002E-15  0.1262379E-14  0.2222222E-01
    1      -13.979522   1.000000
    2      -12.992608   1.000000
    3      -12.841644   1.000000
    4      -12.452552   1.000000
    5      -11.861630   1.000000
    6      -11.703535   1.000000
    7      -11.644403   1.000000
    8      -11.631290   1.000000
    9      -11.464747   1.000000
   10      -11.241874   1.000000
   11      -11.114556   1.000000
   12      -11.044864   1.000000
   13      -10.858050   1.000000
   14      -10.471023   1.000000
   15      -10.360879   1.000000
   16      -10.216897   1.000000
   17      -10.132517   1.000000
   18      -10.062808   1.000000
   19       -9.891208   1.000000
   20       -9.682527   1.000000
   21       -9.644905   1.000000
   22       -9.554890   1.000000
   23       -9.304307   1.000000
   24       -9.007868   1.000000
   25       -8.940396   1.000000
   26       -8.777443   1.000000
   27       -8.629111   1.000000
   28       -8.435117   1.000000
   29       -8.364789   1.000000
   30       -8.157203   1.000000
   31       -8.093098   1.000000
   32       -7.853766   1.000000
   33       -7.556539   1.000000
   34       -7.406325   1.000000
   35       -7.327148   1.000000
   36       -7.199446   1.000000
   37       -7.107224   1.000000
   38       -6.959204   1.000000
   39       -6.895650   1.000000
   40       -6.817140   1.000000
   41       -6.754920   1.000000
   42       -6.665105   1.000000
   43       -6.573916   1.000000
   44       -6.483905   1.000000
   45       -6.409647   1.000000
   46       -6.336863   1.000000
   47       -6.204058   1.000000
   48       -6.084297   1.000000
   49       -6.044547   1.000000
   50       -5.991020   1.000000
   51       -5.826013   1.000000
   52       -5.757277   1.000000
   53       -5.746680   1.000000
   54       -5.686227   1.000000
   55       -5.646698   1.000000
   56       -5.509262   1.000000
   57       -5.456542   1.000000
   58       -5.404382   1.000000
   59       -5.234702   1.000000
   60       -5.227707   1.000000
   61       -5.090611   1.000000
   62       -5.063291   1.000000
   63       -4.917388   1.000000
   64       -4.760176   1.000000
   65       -4.717839   1.000000
   66       -4.681256   1.000000
   67       -4.618533   1.000000
   68       -4.605991   1.000000
   69       -4.544670   1.000000
   70       -4.503233   1.000000
   71       -4.451292   1.000000
   72       -4.338457   1.000000
   73       -4.293904   1.000000
   74       -4.253994   1.000000
   75       -4.211507   1.000000
   76       -4.109318   1.000000
   77       -4.040368   1.000000
   78       -4.005683   1.000000
   79       -3.853916   1.000000
   80       -3.789911   1.000000
   81       -3.769785   1.000000
   82       -3.689417   1.000000
   83       -3.646669   1.000000
   84       -3.506704   1.000000
   85       -3.410275   1.000000
   86       -3.398810   1.000000
   87       -3.381565   1.000000
   88       -3.338758   1.000000
   89       -3.271529   1.000000
   90       -3.235792   1.000000
   91       -3.176966   1.000000
   92       -3.122328   1.000000
   93       -3.010382   1.000000
   94       -2.951251   1.000000
   95       -2.896438   1.000000
   96       -2.779348   1.000000
   97       -2.737141   1.000000
   98       -2.703752   1.000000
   99       -2.605438   1.000000
  100       -2.499509   1.000000
  101       -2.469557   1.000000
  102       -2.383430   1.000000
  103       -2.352732   1.000000
  104       -2.343990   1.000000
  105       -2.209661   1.000000
  106       -2.187276   1.000000
  107       -2.154975   1.000000
  108       -2.129026   1.000000
  109       -2.041746   1.000000
  110       -2.037257   1.000000
  111       -1.851054   1.000000
  112       -1.815319   1.000000
  113       -1.775481   1.000000
  114       -1.728847   1.000000
  115       -1.494787   1.000000
  116       -1.350049   1.000000
  117       -1.332353   1.000000
  118       -1.253383   1.000000
  119       -1.178874   1.000000
  120       -1.078650   1.000000
  121       -0.967734   1.000000
  122       -0.949872   1.000000
  123       -0.704221   1.000001
  124       -0.590094   1.000024
  125       -0.515212   1.000203
  126       -0.392270   1.003381
  127       -0.345204   1.007807
  128       -0.236176   1.029300
  129       -0.211743   1.033716
  130       -0.126003   1.013310
  131       -0.095296   0.978448
  132       -0.057166   0.904724
  133        0.017828   0.659345
  134        0.111334   0.276478
  135        0.138318   0.183075
  136        0.168514   0.098129
  137        0.204026   0.027302
  138        0.256008  -0.024995
  139        0.313332  -0.034937
  140        0.365459  -0.025563
  141        0.493018  -0.004224
  142        0.607976  -0.000338
  143        0.624214  -0.000222
  144        0.672801  -0.000058
  145        0.737112  -0.000008
  146        0.857633  -0.000000
  147        0.935199  -0.000000
  148        0.995583  -0.000000
  149        1.048267  -0.000000
  150        1.066045  -0.000000
  151        1.116502  -0.000000
  152        1.135684  -0.000000
  153        1.170796  -0.000000
  154        1.211462  -0.000000
  155        1.243850  -0.000000
  156        1.279077  -0.000000
  157        1.305238  -0.000000
  158        1.336123  -0.000000
  159        1.379099  -0.000000
  160        1.389007  -0.000000
  161        1.420559  -0.000000
  162        1.465439  -0.000000
  163        1.525507  -0.000000
  164        1.535762  -0.000000
  165        1.588583  -0.000000
  166        1.650083  -0.000000
  167        1.661484  -0.000000
  168        1.674509  -0.000000
  169        1.694440  -0.000000
  170        1.798032  -0.000000
  171        1.843867  -0.000000
  172        1.899694  -0.000000
  173        1.949374  -0.000000
  174        1.985487  -0.000000
  175        2.018869  -0.000000
  176        2.082269  -0.000000

  0.2000000E+00  0.3742002E-15  0.1262379E-14  0.4444444E-01
    1      -13.938828   1.000000
    2      -13.233916   1.000000
    3      -12.724021   1.000000
    4      -12.215364   1.000000
    5      -12.015584   1.000000
    6      -11.851461   1.000000
    7      -11.681681   1.000000
    8      -11.436378   1.000000
    9      -11.297819   1.000000
   10      -11.251457   1.000000
   11      -11.081999   1.000000
   12      -10.958926   1.000000
   13      -10.849658   1.000000
   14      -10.657708   1.000000
   15      -10.521942   1.000000
   16      -10.369756   1.000000
   17      -10.216634   1.000000
   18      -10.097775   1.000000
   19       -9.791925   1.000000
   20       -9.739418   1.000000
   21       -9.494328   1.000000
   22       -9.452038   1.000000
   23       -9.320974   1.000000
   24       -9.078983   1.000000
   25       -8.965912   1.000000
   26       -8.816653   1.000000
   27       -8.423846   1.000000
   28       -8.310193   1.000000
   29       -8.158344   1.000000
   30       -8.106843   1.000000
   31       -8.075121   1.000000
   32       -8.031193   1.000000
   33       -7.531694   1.000000
   34       -7.490686   1.000000
   35       -7.397173   1.000000
   36       -7.224603   1.000000
   37       -7.192599   1.000000
   38       -7.147640   1.000000
   39       -6.931188   1.000000
   40       -6.799804   1.000000
   41       -6.762786   1.000000
   42       -6.652838   1.000000
   43       -6.606393   1.000000
   44       -6.524611   1.000000
   45       -6.433130   1.000000
   46       -6.283795   1.000000
   47       -6.131549   1.000000
   48       -6.054687   1.000000
   49       -5.986119   1.000000
   50       -5.931192   1.000000
   51       -5.883368   1.000000
   52       -5.819860   1.000000
   53       -5.737140   1.000000
   54       -5.638920   1.000000
   55       -5.532064   1.000000
   56       -5.481970   1.000000
   57       -5.411170   1.000000
   58       -5.361893   1.000000
   59       -5.294105   1.000000
   60       -5.208978   1.000000
   61       -5.128065   1.000000
   62       -5.045064   1.000000
   63       -4.897275   1.000000
   64       -4.824598   1.000000
   65       -4.745536   1.000000
   66       -4.719479   1.000000
   67       -4.626567   1.000000
   68       -4.565948   1.000000
   69       -4.499995   1.000000
   70       -4.474434   1.000000
   71       -4.430137   1.000000
   72       -4.373926   1.000000
   73       -4.289674   1.000000
   74       -4.250568   1.000000
   75       -4.189884   1.000000
   76       -4.101621   1.000000
   77       -4.024051   1.000000
   78       -3.950157   1.000000
   79       -3.900207   1.000000
   80       -3.868544   1.000000
   81       -3.789269   1.000000
   82       -3.708210   1.000000
   83       -3.580238   1.000000
   84       -3.511557   1.000000
   85       -3.479115   1.000000
   86       -3.447770   1.000000
   87       -3.377487   1.000000
   88       -3.356727   1.000000
   89       -3.310788   1.000000
   90       -3.195250   1.000000
   91       -3.175607   1.000000
   92       -3.082582   1.000000
   93       -3.053831   1.000000
   94       -3.028453   1.000000
   95       -2.909182   1.000000
   96       -2.788157   1.000000
   97       -2.732731   1.000000
   98       -2.621000   1.000000
   99       -2.584500   1.000000
  100       -2.552232   1.000000
  101       -2.495157   1.000000
  102       -2.344353   1.000000
  103       -2.319512   1.000000
  104       -2.293858   1.000000
  105       -2.199992   1.000000
  106       -2.175325   1.000000
  107       -2.108761   1.000000
  108       -2.070124   1.000000
  109       -2.043496   1.000000
  110       -1.994762   1.000000
  111       -1.880481   1.000000
  112       -1.808699   1.000000
  113       -1.719366   1.000000
  114       -1.681057   1.000000
  115       -1.509618   1.000000
  116       -1.386598   1.000000
  117       -1.348743   1.000000
  118       -1.265255   1.000000
  119       -1.207122   1.000000
  120       -1.120120   1.000000
  121       -1.015095   1.000000
  122       -0.957864   1.000000
  123       -0.757387   1.000000
  124       -0.669597   1.000002
  125       -0.489029   1.000397
  126       -0.416171   1.002096
  127       -0.370675   1.005051
  128       -0.304184   1.014346
  129       -0.278764   1.019644
  130       -0.181542   1.035251
  131       -0.140593   1.023418
  132       -0.054746   0.898820
  133       -0.006158   0.750402
  134        0.079281   0.403312
  135        0.168353   0.098523
  136        0.216398   0.009779
  137        0.222652   0.002225
  138        0.315254  -0.034769
  139        0.361366  -0.026501
  140        0.423215  -0.013131
  141        0.478069  -0.005533
  142        0.579289  -0.000682
  143        0.667933  -0.000067
  144        0.725052  -0.000012
  145        0.814938  -0.000001
  146        0.889289  -0.000000
  147        0.927850  -0.000000
  148        0.976636  -0.000000
  149        1.014578  -0.000000
  150        1.058549  -0.000000
  151        1.109390  -0.000000
  152        1.147689  -0.000000
  153        1.199146  -0.000000
  154        1.252920  -0.000000
  155        1.258490  -0.000000
  156        1.312470  -0.000000
  157        1.330713  -0.000000
  158        1.354320  -0.000000
  159        1.388774  -0.000000
  160        1.403573  -0.000000
  161        1.458287  -0.000000
  162        1.500922  -0.000000
  163        1.527695  -0.000000
  164        1.553414  -0.000000
  165        1.592104  -0.000000
  166        1.660716  -0.000000
  167        1.667143  -0.000000
  168        1.682756  -0.000000
  169        1.755074  -0.000000
  170        1.795480  -0.000000
  171        1.864490  -0.000000
  172        1.884921  -0.000000
  173        1.961042  -0.000000
  174        2.003080  -0.000000
  175        2.065719  -0.000000
  176        2.094240  -0.000000

  0.4000000E+00  0.3742002E-15  0.1262379E-14  0.4444444E-01
    1      -13.836128   1.000000
    2      -13.489412   1.000000
    3      -12.605574   1.000000
    4      -12.274933   1.000000
    5      -11.833944   1.000000
    6      -11.740587   1.000000
    7      -11.727190   1.000000
    8      -11.397753   1.000000
    9      -11.267180   1.000000
   10      -11.198496   1.000000
   11      -11.055668   1.000000
   12      -11.010659   1.000000
   13      -10.837937   1.000000
   14      -10.726729   1.000000
   15      -10.638460   1.000000
   16      -10.550667   1.000000
   17      -10.225218   1.000000
   18      -10.060363   1.000000
   19      -10.051844   1.000000
   20       -9.854628   1.000000
   21       -9.445337   1.000000
   22       -9.391227   1.000000
   23       -9.177158   1.000000
   24       -9.017314   1.000000
   25       -8.892307   1.000000
   26       -8.743150   1.000000
   27       -8.422876   1.000000
   28       -8.179618   1.000000
   29       -8.046195   1.000000
   30       -7.917493   1.000000
   31       -7.890630   1.000000
   32       -7.817699   1.000000
   33       -7.748302   1.000000
   34       -7.677684   1.000000
   35       -7.513223   1.000000
   36       -7.462101   1.000000
   37       -7.353783   1.000000
   38       -7.238480   1.000000
   39       -7.146347   1.000000
   40       -6.886544   1.000000
   41       -6.781772   1.000000
   42       -6.618262   1.000000
   43       -6.541658   1.000000
   44       -6.466502   1.000000
   45       -6.324428   1.000000
   46       -6.175508   1.000000
   47       -6.103033   1.000000
   48       -6.066426   1.000000
   49       -6.046198   1.000000
   50       -5.953835   1.000000
   51       -5.879169   1.000000
   52       -5.735317   1.000000
   53       -5.658536   1.000000
   54       -5.643543   1.000000
   55       -5.544140   1.000000
   56       -5.488772   1.000000
   57       -5.394717   1.000000
   58       -5.318995   1.000000
   59       -5.247194   1.000000
   60       -5.181318   1.000000
   61       -5.112596   1.000000
   62       -5.019696   1.000000
   63       -4.918787   1.000000
   64       -4.790846   1.000000
   65       -4.772942   1.000000
   66       -4.704349   1.000000
   67       -4.671852   1.000000
   68       -4.583565   1.000000
   69       -4.524249   1.000000
   70       -4.466962   1.000000
   71       -4.395759   1.000000
   72       -4.342255   1.000000
   73       -4.320111   1.000000
   74       -4.171533   1.000000
   75       -4.140986   1.000000
   76       -4.051152   1.000000
   77       -4.014735   1.000000
   78       -3.977893   1.000000
   79       -3.946554   1.000000
   80       -3.919418   1.000000
   81       -3.790008   1.000000
   82       -3.718208   1.000000
   83       -3.620621   1.000000
   84       -3.594325   1.000000
   85       -3.528900   1.000000
   86       -3.505262   1.000000
   87       -3.414899   1.000000
   88       -3.312835   1.000000
   89       -3.279008   1.000000
   90       -3.202564   1.000000
   91       -3.181630   1.000000
   92       -3.160381   1.000000
   93       -3.018526   1.000000
   94       -3.001265   1.000000
   95       -2.954043   1.000000
   96       -2.907268   1.000000
   97       -2.733887   1.000000
   98       -2.659195   1.000000
   99       -2.602423   1.000000
  100       -2.553072   1.000000
  101       -2.395017   1.000000
  102       -2.316258   1.000000
  103       -2.289780   1.000000
  104       -2.196572   1.000000
  105       -2.153337   1.000000
  106       -2.077514   1.000000
  107       -2.052329   1.000000
  108       -2.018413   1.000000
  109       -1.973798   1.000000
  110       -1.921030   1.000000
  111       -1.844058   1.000000
  112       -1.766699   1.000000
  113       -1.709042   1.000000
  114       -1.634354   1.000000
  115       -1.577189   1.000000
  116       -1.497691   1.000000
  117       -1.408620   1.000000
  118       -1.342998   1.000000
  119       -1.164717   1.000000
  120       -1.138220   1.000000
  121       -1.063185   1.000000
  122       -0.983988   1.000000
  123       -0.850370   1.000000
  124       -0.818240   1.000000
  125       -0.542766   1.000096
  126       -0.438440   1.001302
  127       -0.402868   1.002747
  128       -0.393733   1.003286
  129       -0.350231   1.007188
  130       -0.265267   1.022713
  131       -0.194347   1.035339
  132       -0.090512   0.971145
  133        0.061106   0.479514
  134        0.114552   0.264587
  135        0.160720   0.117909
  136        0.211972   0.015646
  137        0.274145  -0.032091
  138        0.334908  -0.032017
  139        0.420258  -0.013675
  140        0.452109  -0.008545
  141        0.557051  -0.001138
  142        0.616859  -0.000269
  143        0.713291  -0.000017
  144        0.765188  -0.000003
  145        0.809046  -0.000001
  146        0.847546  -0.000000
  147        0.981228  -0.000000
  148        1.019455  -0.000000
  149        1.081617  -0.000000
  150        1.098508  -0.000000
  151        1.134814  -0.000000
  152        1.159030  -0.000000
  153        1.202403  -0.000000
  154        1.241469  -0.000000
  155        1.283742  -0.000000
  156        1.304575  -0.000000
  157        1.336913  -0.000000
  158        1.378286  -0.000000
  159        1.416933  -0.000000
  160        1.451754  -0.000000
  161        1.528255  -0.000000
  162        1.549850  -0.000000
  163        1.575460  -0.000000
  164        1.602028  -0.000000
  165        1.610981  -0.000000
  166        1.664532  -0.000000
  167        1.679508  -0.000000
  168        1.773687  -0.000000
  169        1.797838  -0.000000
  170        1.847554  -0.000000
  171        1.866660  -0.000000
  172        1.907935  -0.000000
  173        1.946562  -0.000000
  174        1.992405  -0.000000
  175        2.051781  -0.000000
  176        2.115072  -0.000000

  0.3742002E-15  0.1111111E+00  0.1262379E-14  0.4444444E-01
    1      -13.933792   1.000000
    2      -12.953586   1.000000
    3      -12.806893   1.000000
    4      -12.421269   1.000000
    5      -11.958338   1.000000
    6      -11.691763   1.000000
    7      -11.657849   1.000000
    8      -11.609694   1.000000
    9      -11.508884   1.000000
   10      -11.264473   1.000000
   11      -11.124069   1.000000
   12      -11.017725   1.000000
   13      -10.886255   1.000000
   14      -10.470238   1.000000
   15      -10.336026   1.000000
   16      -10.233829   1.000000
   17      -10.123661   1.000000
   18      -10.058722   1.000000
   19       -9.863693   1.000000
   20       -9.704848   1.000000
   21       -9.636103   1.000000
   22       -9.562071   1.000000
   23       -9.297623   1.000000
   24       -9.041794   1.000000
   25       -8.956065   1.000000
   26       -8.759525   1.000000
   27       -8.616610   1.000000
   28       -8.453833   1.000000
   29       -8.363205   1.000000
   30       -8.182696   1.000000
   31       -7.946886   1.000000
   32       -7.863222   1.000000
   33       -7.636196   1.000000
   34       -7.462575   1.000000
   35       -7.332919   1.000000
   36       -7.280766   1.000000
   37       -7.167273   1.000000
   38       -6.932865   1.000000
   39       -6.846778   1.000000
   40       -6.786183   1.000000
   41       -6.731168   1.000000
   42       -6.644748   1.000000
   43       -6.544988   1.000000
   44       -6.473943   1.000000
   45       -6.384153   1.000000
   46       -6.331358   1.000000
   47       -6.213205   1.000000
   48       -6.103646   1.000000
   49       -6.002312   1.000000
   50       -5.977071   1.000000
   51       -5.829629   1.000000
   52       -5.789596   1.000000
   53       -5.751300   1.000000
   54       -5.715479   1.000000
   55       -5.596641   1.000000
   56       -5.441411   1.000000
   57       -5.401887   1.000000
   58       -5.335456   1.000000
   59       -5.279836   1.000000
   60       -5.195697   1.000000
   61       -5.065915   1.000000
   62       -5.026477   1.000000
   63       -4.904648   1.000000
   64       -4.778134   1.000000
   65       -4.722777   1.000000
   66       -4.690747   1.000000
   67       -4.659467   1.000000
   68       -4.593087   1.000000
   69       -4.550749   1.000000
   70       -4.532491   1.000000
   71       -4.419631   1.000000
   72       -4.341363   1.000000
   73       -4.276310   1.000000
   74       -4.247021   1.000000
   75       -4.201134   1.000000
   76       -4.120926   1.000000
   77       -4.034052   1.000000
   78       -4.001342   1.000000
   79       -3.877431   1.000000
   80       -3.855836   1.000000
   81       -3.787281   1.000000
   82       -3.733895   1.000000
   83       -3.656158   1.000000
   84       -3.565550   1.000000
   85       -3.529645   1.000000
   86       -3.440086   1.000000
   87       -3.351548   1.000000
   88       -3.314790   1.000000
   89       -3.277433   1.000000
   90       -3.230630   1.000000
   91       -3.176756   1.000000
   92       -3.127529   1.000000
   93       -3.073064   1.000000
   94       -2.973957   1.000000
   95       -2.906728   1.000000
   96       -2.783912   1.000000
   97       -2.756743   1.000000
   98       -2.689272   1.000000
   99       -2.597679   1.000000
  100       -2.556038   1.000000
  101       -2.464941   1.000000
  102       -2.420487   1.000000
  103       -2.395217   1.000000
  104       -2.302788   1.000000
  105       -2.262423   1.000000
  106       -2.205343   1.000000
  107       -2.176194   1.000000
  108       -2.098837   1.000000
  109       -2.012731   1.000000
  110       -1.970148   1.000000
  111       -1.888499   1.000000
  112       -1.790469   1.000000
  113       -1.735285   1.000000
  114       -1.665808   1.000000
  115       -1.486061   1.000000
  116       -1.402426   1.000000
  117       -1.330613   1.000000
  118       -1.242743   1.000000
  119       -1.214377   1.000000
  120       -1.062110   1.000000
  121       -0.967391   1.000000
  122       -0.876381   1.000000
  123       -0.700987   1.000001
  124       -0.629990   1.000007
  125       -0.509290   1.000237
  126       -0.370444   1.005072
  127       -0.335103   1.009168
  128       -0.322078   1.011164
  129       -0.257720   1.024459
  130       -0.234478   1.029657
  131       -0.155116   1.030068
  132       -0.038247   0.854649
  133        0.064015   0.467224
  134        0.089220   0.362623
  135        0.178390   0.075270
  136        0.200541   0.032879
  137        0.236194  -0.011337
  138        0.302870  -0.035447
  139        0.391647  -0.019564
  140        0.418606  -0.013985
  141        0.521584  -0.002425
  142        0.597237  -0.000442
  143        0.693903  -0.000031
  144        0.712460  -0.000018
  145        0.766890  -0.000003
  146        0.818778  -0.000000
  147        0.899392  -0.000000
  148        0.950106  -0.000000
  149        1.011959  -0.000000
  150        1.082435  -0.000000
  151        1.106140  -0.000000
  152        1.126962  -0.000000
  153        1.172881  -0.000000
  154        1.211774  -0.000000
  155        1.242511  -0.000000
  156        1.268031  -0.000000
  157        1.306219  -0.000000
  158        1.336942  -0.000000
  159        1.352083  -0.000000
  160        1.395979  -0.000000
  161        1.435457  -0.000000
  162        1.446311  -0.000000
  163        1.475146  -0.000000
  164        1.520187  -0.000000
  165        1.580159  -0.000000
  166        1.620688  -0.000000
  167        1.650366  -0.000000
  168        1.693319  -0.000000
  169        1.708444  -0.000000
  170        1.752088  -0.000000
  171        1.875878  -0.000000
  172        1.906711  -0.000000
  173        1.934611  -0.000000
  174        1.982429  -0.000000
  175        2.051173  -0.000000
  176        2.120418  -0.000000

  0.2000000E+00  0.1111111E+00  0.1262379E-14  0.4444444E-01
    1      -13.893478   1.000000
    2      -13.194347   1.000000
    3      -12.686947   1.000000
    4      -12.191867   1.000000
    5      -11.986316   1.000000
    6      -11.939648   1.000000
    7      -11.727485   1.000000
    8      -11.471848   1.000000
    9      -11.290551   1.000000
   10      -11.255246   1.000000
   11      -11.096476   1.000000
   12      -10.936987   1.000000
   13      -10.869525   1.000000
   14      -10.643661   1.000000
   15      -10.513187   1.000000
   16      -10.350821   1.000000
   17      -10.232954   1.000000
   18      -10.102592   1.000000
   19       -9.795202   1.000000
   20       -9.718470   1.000000
   21       -9.513900   1.000000
   22       -9.435063   1.000000
   23       -9.322869   1.000000
   24       -9.078580   1.000000
   25       -8.997760   1.000000
   26       -8.807764   1.000000
   27       -8.442834   1.000000
   28       -8.302177   1.000000
   29       -8.176874   1.000000
   30       -8.126269   1.000000
   31       -8.074248   1.000000
   32       -7.894582   1.000000
   33       -7.602497   1.000000
   34       -7.553730   1.000000
   35       -7.410668   1.000000
   36       -7.247566   1.000000
   37       -7.220081   1.000000
   38       -7.053901   1.000000
   39       -6.919858   1.000000
   40       -6.828811   1.000000
   41       -6.754977   1.000000
   42       -6.663583   1.000000
   43       -6.587485   1.000000
   44       -6.487218   1.000000
   45       -6.436509   1.000000
   46       -6.392015   1.000000
   47       -6.164950   1.000000
   48       -6.017966   1.000000
   49       -5.931023   1.000000
   50       -5.879386   1.000000
   51       -5.856436   1.000000
   52       -5.788313   1.000000
   53       -5.747374   1.000000
   54       -5.614188   1.000000
   55       -5.527763   1.000000
   56       -5.461848   1.000000
   57       -5.384383   1.000000
   58       -5.313221   1.000000
   59       -5.280567   1.000000
   60       -5.198877   1.000000
   61       -5.110675   1.000000
   62       -5.016012   1.000000
   63       -4.893380   1.000000
   64       -4.810818   1.000000
   65       -4.757230   1.000000
   66       -4.697934   1.000000
   67       -4.628704   1.000000
   68       -4.590591   1.000000
   69       -4.544359   1.000000
   70       -4.460481   1.000000
   71       -4.390958   1.000000
   72       -4.367862   1.000000
   73       -4.320869   1.000000
   74       -4.242825   1.000000
   75       -4.155220   1.000000
   76       -4.109120   1.000000
   77       -4.041561   1.000000
   78       -3.971864   1.000000
   79       -3.935119   1.000000
   80       -3.879040   1.000000
   81       -3.783709   1.000000
   82       -3.721397   1.000000
   83       -3.659739   1.000000
   84       -3.591811   1.000000
   85       -3.530752   1.000000
   86       -3.480841   1.000000
   87       -3.397417   1.000000
   88       -3.318184   1.000000
   89       -3.284917   1.000000
   90       -3.235191   1.000000
   91       -3.189375   1.000000
   92       -3.142992   1.000000
   93       -3.087168   1.000000
   94       -3.014574   1.000000
   95       -2.859076   1.000000
   96       -2.827971   1.000000
   97       -2.725930   1.000000
   98       -2.633372   1.000000
   99       -2.618844   1.000000
  100       -2.512522   1.000000
  101       -2.505236   1.000000
  102       -2.391623   1.000000
  103       -2.337948   1.000000
  104       -2.315846   1.000000
  105       -2.269420   1.000000
  106       -2.219271   1.000000
  107       -2.121690   1.000000
  108       -2.043115   1.000000
  109       -1.996912   1.000000
  110       -1.955334   1.000000
  111       -1.876717   1.000000
  112       -1.801390   1.000000
  113       -1.730480   1.000000
  114       -1.644483   1.000000
  115       -1.494023   1.000000
  116       -1.442826   1.000000
  117       -1.332589   1.000000
  118       -1.275071   1.000000
  119       -1.233858   1.000000
  120       -1.123790   1.000000
  121       -0.947385   1.000000
  122       -0.910927   1.000000
  123       -0.748694   1.000000
  124       -0.667194   1.000002
  125       -0.520735   1.000175
  126       -0.442291   1.001196
  127       -0.360938   1.005996
  128       -0.297936   1.015571
  129       -0.281312   1.019079
  130       -0.239249   1.028640
  131       -0.155625   1.030247
  132       -0.059410   0.910069
  133        0.047607   0.536588
  134        0.088849   0.364124
  135        0.144444   0.164063
  136        0.206822   0.023033
  137        0.289635  -0.034900
  138        0.338894  -0.031281
  139        0.381681  -0.021818
  140        0.486186  -0.004787
  141        0.523768  -0.002320
  142        0.577298  -0.000715
  143        0.690740  -0.000034
  144        0.746184  -0.000006
  145        0.829433  -0.000000
  146        0.853234  -0.000000
  147        0.918304  -0.000000
  148        0.985518  -0.000000
  149        1.000665  -0.000000
  150        1.082630  -0.000000
  151        1.114261  -0.000000
  152        1.151309  -0.000000
  153        1.186343  -0.000000
  154        1.208319  -0.000000
  155        1.254562  -0.000000
  156        1.277149  -0.000000
  157        1.322201  -0.000000
  158        1.338514  -0.000000
  159        1.357291  -0.000000
  160        1.407587  -0.000000
  161        1.456775  -0.000000
  162        1.478896  -0.000000
  163        1.510913  -0.000000
  164        1.530670  -0.000000
  165        1.589022  -0.000000
  166        1.625897  -0.000000
  167        1.656917  -0.000000
  168        1.710279  -0.000000
  169        1.737505  -0.000000
  170        1.808068  -0.000000
  171        1.835897  -0.000000
  172        1.893248  -0.000000
  173        1.926996  -0.000000
  174        1.991000  -0.000000
  175        2.053122  -0.000000
  176        2.162226  -0.000000

  0.4000000E+00  0.1111111E+00  0.1262379E-14  0.4444444E-01
    1      -13.791567   1.000000
    2      -13.447921   1.000000
    3      -12.569015   1.000000
    4      -12.243177   1.000000
    5      -11.925272   1.000000
    6      -11.795087   1.000000
    7      -11.705144   1.000000
    8      -11.426176   1.000000
    9      -11.288642   1.000000
   10      -11.173208   1.000000
   11      -11.049253   1.000000