 running on   72 total cores
 distrk:  each k-point on   72 cores,    1 groups
 distr:  one band on    9 cores,    8 groups
 using from now: INCAR     
 vasp.5.4.4.18Apr17-6-g9f103f2a35 (build Dec  7 2020 12:43:57) complex           
 POSCAR found type information on POSCAR  Mo V  B  H 
 POSCAR found :  4 types and      71 ions
 scaLAPACK will be used
 LDA part: xc-table for Pade appr. of Perdew
 POSCAR, INCAR and KPOINTS ok, starting setup
 resort distribution
 resort distribution
 resort distribution
 resort distribution
 resort distribution
 resort distribution
 resort distribution
 resort distribution
 resort distribution
 resort distribution
 resort distribution
 resort distribution
 resort distribution
 resort distribution
 resort distribution
 resort distribution
 resort distribution
 resort distribution
 resort distribution
 resort distribution
 resort distribution
 resort distribution
 resort distribution
 resort distribution
 resort distribution
 resort distribution
 resort distribution
 resort distribution
 resort distribution
 resort distribution
 resort distribution
 resort distribution
 resort distribution
 resort distribution
 resort distribution
 resort distribution
 resort distribution
 resort distribution
 resort distribution
 resort distribution
 resort distribution
 resort distribution
 resort distribution
 resort distribution
 resort distribution
 resort distribution
 resort distribution
 resort distribution
 resort distribution
 resort distribution
 resort distribution
 resort distribution
 resort distribution
 resort distribution
 resort distribution
 resort distribution
 resort distribution
 resort distribution
 resort distribution
 resort distribution
 resort distribution
 resort distribution
 resort distribution
 resort distribution
 resort distribution
 resort distribution
 resort distribution
 resort distribution
 resort distribution
 resort distribution
 resort distribution
 resort distribution
 FFT: planning ...
 WAVECAR not read
 augmentation electrons   266.05815609786947     
 soft         electrons   0.0000000000000000     
 augmentation electrons   266.05815609786947     
 soft         electrons   0.0000000000000000     
 augmentation electrons   266.05815609786947     
 soft         electrons   0.0000000000000000     
 augmentation electrons   266.05815609786947     
 soft         electrons   0.0000000000000000     
 augmentation electrons   266.05815609786947     
 soft         electrons   0.0000000000000000     
 augmentation electrons   266.05815609786947     
 soft         electrons   0.0000000000000000     
 augmentation electrons   266.05815609786947     
 soft         electrons   0.0000000000000000     
 augmentation electrons   266.05815609786947     
 soft         electrons   0.0000000000000000     
 augmentation electrons   266.05815609786947     
 soft         electrons   0.0000000000000000     
 augmentation electrons   266.05815609786947     
 soft         electrons   0.0000000000000000     
 augmentation electrons   266.05815609786947     
 soft         electrons   0.0000000000000000     
 augmentation electrons   266.05815609786947     
 soft         electrons   0.0000000000000000     
 augmentation electrons   266.05815609786947     
 soft         electrons   0.0000000000000000     
 augmentation electrons   266.05815609786947     
 soft         electrons   0.0000000000000000     
 augmentation electrons   266.05815609786947     
 soft         electrons   0.0000000000000000     
 augmentation electrons   266.05815609786947     
 soft         electrons   0.0000000000000000     
 augmentation electrons   266.05815609786947     
 soft         electrons   0.0000000000000000     
 augmentation electrons   266.05815609786947     
 soft         electrons   0.0000000000000000     
 augmentation electrons   266.05815609786947     
 soft         electrons   0.0000000000000000     
 augmentation electrons   266.05815609786947     
 soft         electrons   0.0000000000000000     
 augmentation electrons   266.05815609786947     
 soft         electrons   0.0000000000000000     
 augmentation electrons   266.05815609786947     
 soft         electrons   0.0000000000000000     
 augmentation electrons   266.05815609786947     
 soft         electrons   0.0000000000000000     
 augmentation electrons   266.05815609786947     
 soft         electrons   0.0000000000000000     
 augmentation electrons   266.05815609786947     
 soft         electrons   0.0000000000000000     
 augmentation electrons   266.05815609786947     
 soft         electrons   0.0000000000000000     
 augmentation electrons   266.05815609786947     
 soft         electrons   0.0000000000000000     
 augmentation electrons   266.05815609786947     
 soft         electrons   0.0000000000000000     
 augmentation electrons   266.05815609786947     
 soft         electrons   0.0000000000000000     
 augmentation electrons   266.05815609786947     
 soft         electrons   0.0000000000000000     
 augmentation electrons   266.05815609786947     
 soft         electrons   0.0000000000000000     
 augmentation electrons   266.05815609786947     
 soft         electrons   0.0000000000000000     
 augmentation electrons   266.05815609786947     
 soft         electrons   0.0000000000000000     
 augmentation electrons   266.05815609786947     
 soft         electrons   0.0000000000000000     
 augmentation electrons   266.05815609786947     
 soft         electrons   0.0000000000000000     
 augmentation electrons   266.05815609786947     
 soft         electrons   0.0000000000000000     
 augmentation electrons   266.05815609786947     
 soft         electrons   0.0000000000000000     
 augmentation electrons   266.05815609786947     
 soft         electrons   0.0000000000000000     
 augmentation electrons   266.05815609786947     
 soft         electrons   0.0000000000000000     
 augmentation electrons   266.05815609786947     
 soft         electrons   0.0000000000000000     
 augmentation electrons   266.05815609786947     
 soft         electrons   0.0000000000000000     
 augmentation electrons   266.05815609786947     
 soft         electrons   0.0000000000000000     
 augmentation electrons   266.05815609786947     
 soft         electrons   0.0000000000000000     
 augmentation electrons   266.05815609786947     
 soft         electrons   0.0000000000000000     
 augmentation electrons   266.05815609786947     
 soft         electrons   0.0000000000000000     
 augmentation electrons   266.05815609786947     
 soft         electrons   0.0000000000000000     
 augmentation electrons   266.05815609786947     
 soft         electrons   0.0000000000000000     
 augmentation electrons   266.05815609786947     
 soft         electrons   0.0000000000000000     
 augmentation electrons   266.05815609786947     
 soft         electrons   0.0000000000000000     
 augmentation electrons   266.05815609786947     
 soft         electrons   0.0000000000000000     
 augmentation electrons   266.05815609786947     
 soft         electrons   0.0000000000000000     
 augmentation electrons   266.05815609786947     
 soft         electrons   0.0000000000000000     
 augmentation electrons   266.05815609786947     
 soft         electrons   0.0000000000000000     
 augmentation electrons   266.05815609786947     
 soft         electrons   0.0000000000000000     
 augmentation electrons   266.05815609786947     
 soft         electrons   0.0000000000000000     
 augmentation electrons   266.05815609786947     
 soft         electrons   0.0000000000000000     
 augmentation electrons   266.05815609786947     
 soft         electrons   0.0000000000000000     
 augmentation electrons   266.05815609786947     
 soft         electrons   0.0000000000000000     
 augmentation electrons   266.05815609786947     
 soft         electrons   0.0000000000000000     
 augmentation electrons   266.05815609786947     
 soft         electrons   0.0000000000000000     
 augmentation electrons   266.05815609786947     
 soft         electrons   0.0000000000000000     
 augmentation electrons   266.05815609786947     
 soft         electrons   0.0000000000000000     
 augmentation electrons   266.05815609786947     
 soft         electrons   0.0000000000000000     
 augmentation electrons   266.05815609786947     
 soft         electrons   0.0000000000000000     
 augmentation electrons   266.05815609786947     
 soft         electrons   0.0000000000000000     
 augmentation electrons   266.05815609786947     
 soft         electrons   0.0000000000000000     
 augmentation electrons   266.05815609786947     
 soft         electrons   0.0000000000000000     
 augmentation electrons   266.05815609786947     
 soft         electrons   0.0000000000000000     
 augmentation electrons   266.05815609786947     
 soft         electrons   0.0000000000000000     
 augmentation electrons   266.05815609786947     
 soft         electrons   0.0000000000000000     
 augmentation electrons   266.05815609786947     
 soft         electrons   0.0000000000000000     
 augmentation electrons   266.05815609786947     
 soft         electrons   0.0000000000000000     
 total        electrons   266.05815609786947     
 total        electrons   266.05815609786947     
 total        electrons   266.05815609786947     
 total        electrons   266.05815609786947     
 total        electrons   266.05815609786947     
 total        electrons   266.05815609786947     
 total        electrons   266.05815609786947     
 total        electrons   266.05815609786947     
 total        electrons   266.05815609786947     
 total        electrons   266.05815609786947     
 total        electrons   266.05815609786947     
 total        electrons   266.05815609786947     
 total        electrons   266.05815609786947     
 total        electrons   266.05815609786947     
 total        electrons   266.05815609786947     
 total        electrons   266.05815609786947     
 total        electrons   266.05815609786947     
 total        electrons   266.05815609786947     
 total        electrons   266.05815609786947     
 total        electrons   266.05815609786947     
 total        electrons   266.05815609786947     
 total        electrons   266.05815609786947     
 total        electrons   266.05815609786947     
 total        electrons   266.05815609786947     
 total        electrons   266.05815609786947     
 total        electrons   266.05815609786947     
 total        electrons   266.05815609786947     
 total        electrons   266.05815609786947     
 total        electrons   266.05815609786947     
 total        electrons   266.05815609786947     
 total        electrons   266.05815609786947     
 total        electrons   266.05815609786947     
 total        electrons   266.05815609786947     
 total        electrons   266.05815609786947     
 total        electrons   266.05815609786947     
 total        electrons   266.05815609786947     
 total        electrons   266.05815609786947     
 total        electrons   266.05815609786947     
 total        electrons   266.05815609786947     
 total        electrons   266.05815609786947     
 total        electrons   266.05815609786947     
 total        electrons   266.05815609786947     
 total        electrons   266.05815609786947     
 total        electrons   266.05815609786947     
 total        electrons   266.05815609786947     
 total        electrons   266.05815609786947     
 total        electrons   266.05815609786947     
 total        electrons   266.05815609786947     
 total        electrons   266.05815609786947     
 total        electrons   266.05815609786947     
 total        electrons   266.05815609786947     
 total        electrons   266.05815609786947     
 total        electrons   266.05815609786947     
 total        electrons   266.05815609786947     
 total        electrons   266.05815609786947     
 total        electrons   266.05815609786947     
 total        electrons   266.05815609786947     
 total        electrons   266.05815609786947     
 total        electrons   266.05815609786947     
 total        electrons   266.05815609786947     
 total        electrons   266.05815609786947     
 total        electrons   266.05815609786947     
 total        electrons   266.05815609786947     
 total        electrons   266.05815609786947     
 total        electrons   266.05815609786947     
 total        electrons   266.05815609786947     
 total        electrons   266.05815609786947     
 total        electrons   266.05815609786947     
 total        electrons   266.05815609786947     
 total        electrons   266.05815609786947     
 total        electrons   266.05815609786947     
 total        electrons   266.05815609786947     
 augmentation electrons   1134.5113766423656     
 soft         electrons   0.0000000000000000     
 augmentation electrons   1134.5113766423656     
 soft         electrons   0.0000000000000000     
 augmentation electrons   1134.5113766423656     
 soft         electrons   0.0000000000000000     
 augmentation electrons   1134.5113766423656     
 soft         electrons   0.0000000000000000     
 augmentation electrons   1134.5113766423656     
 soft         electrons   0.0000000000000000     
 augmentation electrons   1134.5113766423656     
 soft         electrons   0.0000000000000000     
 augmentation electrons   1134.5113766423656     
 soft         electrons   0.0000000000000000     
 augmentation electrons   1134.5113766423656     
 soft         electrons   0.0000000000000000     
 augmentation electrons   1134.5113766423656     
 soft         electrons   0.0000000000000000     
 augmentation electrons   1134.5113766423656     
 soft         electrons   0.0000000000000000     
 augmentation electrons   1134.5113766423656     
 soft         electrons   0.0000000000000000     
 augmentation electrons   1134.5113766423656     
 soft         electrons   0.0000000000000000     
 augmentation electrons   1134.5113766423656     
 soft         electrons   0.0000000000000000     
 augmentation electrons   1134.5113766423656     
 soft         electrons   0.0000000000000000     
 augmentation electrons   1134.5113766423656     
 soft         electrons   0.0000000000000000     
 augmentation electrons   1134.5113766423656     
 soft         electrons   0.0000000000000000     
 augmentation electrons   1134.5113766423656     
 soft         electrons   0.0000000000000000     
 augmentation electrons   1134.5113766423656     
 soft         electrons   0.0000000000000000     
 augmentation electrons   1134.5113766423656     
 soft         electrons   0.0000000000000000     
 augmentation electrons   1134.5113766423656     
 soft         electrons   0.0000000000000000     
 augmentation electrons   1134.5113766423656     
 soft         electrons   0.0000000000000000     
 augmentation electrons   1134.5113766423656     
 soft         electrons   0.0000000000000000     
 augmentation electrons   1134.5113766423656     
 soft         electrons   0.0000000000000000     
 augmentation electrons   1134.5113766423656     
 soft         electrons   0.0000000000000000     
 augmentation electrons   1134.5113766423656     
 soft         electrons   0.0000000000000000     
 augmentation electrons   1134.5113766423656     
 soft         electrons   0.0000000000000000     
 augmentation electrons   1134.5113766423656     
 soft         electrons   0.0000000000000000     
 augmentation electrons   1134.5113766423656     
 soft         electrons   0.0000000000000000     
 augmentation electrons   1134.5113766423656     
 soft         electrons   0.0000000000000000     
 augmentation electrons   1134.5113766423656     
 soft         electrons   0.0000000000000000     
 augmentation electrons   1134.5113766423656     
 soft         electrons   0.0000000000000000     
 augmentation electrons   1134.5113766423656     
 augmentation electrons   1134.5113766423656     
 soft         electrons   0.0000000000000000     
 augmentation electrons   1134.5113766423656     
 soft         electrons   0.0000000000000000     
 augmentation electrons   1134.5113766423656     
 soft         electrons   0.0000000000000000     
 augmentation electrons   1134.5113766423656     
 soft         electrons   0.0000000000000000     
 augmentation electrons   1134.5113766423656     
 soft         electrons   0.0000000000000000     
 augmentation electrons   1134.5113766423656     
 soft         electrons   0.0000000000000000     
 augmentation electrons   1134.5113766423656     
 soft         electrons   0.0000000000000000     
 augmentation electrons   1134.5113766423656     
 soft         electrons   0.0000000000000000     
 augmentation electrons   1134.5113766423656     
 soft         electrons   0.0000000000000000     
 augmentation electrons   1134.5113766423656     
 soft         electrons   0.0000000000000000     
 augmentation electrons   1134.5113766423656     
 soft         electrons   0.0000000000000000     
 augmentation electrons   1134.5113766423656     
 soft         electrons   0.0000000000000000     
 augmentation electrons   1134.5113766423656     
 soft         electrons   0.0000000000000000     
 augmentation electrons   1134.5113766423656     
 soft         electrons   0.0000000000000000     
 augmentation electrons   1134.5113766423656     
 soft         electrons   0.0000000000000000     
 augmentation electrons   1134.5113766423656     
 soft         electrons   0.0000000000000000     
 augmentation electrons   1134.5113766423656     
 soft         electrons   0.0000000000000000     
 augmentation electrons   1134.5113766423656     
 soft         electrons   0.0000000000000000     
 augmentation electrons   1134.5113766423656     
 soft         electrons   0.0000000000000000     
 augmentation electrons   1134.5113766423656     
 soft         electrons   0.0000000000000000     
 augmentation electrons   1134.5113766423656     
 soft         electrons   0.0000000000000000     
 augmentation electrons   1134.5113766423656     
 soft         electrons   0.0000000000000000     
 augmentation electrons   1134.5113766423656     
 soft         electrons   0.0000000000000000     
 augmentation electrons   1134.5113766423656     
 soft         electrons   0.0000000000000000     
 augmentation electrons   1134.5113766423656     
 soft         electrons   0.0000000000000000     
 augmentation electrons   1134.5113766423656     
 soft         electrons   0.0000000000000000     
 augmentation electrons   1134.5113766423656     
 soft         electrons   0.0000000000000000     
 augmentation electrons   1134.5113766423656     
 soft         electrons   0.0000000000000000     
 augmentation electrons   1134.5113766423656     
 soft         electrons   0.0000000000000000     
 augmentation electrons   1134.5113766423656     
 soft         electrons   0.0000000000000000     
 augmentation electrons   1134.5113766423656     
 soft         electrons   0.0000000000000000     
 augmentation electrons   1134.5113766423656     
 soft         electrons   0.0000000000000000     
 augmentation electrons   1134.5113766423656     
 soft         electrons   0.0000000000000000     
 augmentation electrons   1134.5113766423656     
 soft         electrons   0.0000000000000000     
 augmentation electrons   1134.5113766423656     
 soft         electrons   0.0000000000000000     
 augmentation electrons   1134.5113766423656     
 soft         electrons   0.0000000000000000     
 augmentation electrons   1134.5113766423656     
 soft         electrons   0.0000000000000000     
 augmentation electrons   1134.5113766423656     
 soft         electrons   0.0000000000000000     
 augmentation electrons   1134.5113766423656     
 soft         electrons   0.0000000000000000     
 augmentation electrons   1134.5113766423656     
 soft         electrons   0.0000000000000000     
 soft         electrons   0.0000000000000000     
 total        electrons   1134.5113766423656     
 total        electrons   1134.5113766423656     
 total        electrons   1134.5113766423656     
 total        electrons   1134.5113766423656     
 total        electrons   1134.5113766423656     
 total        electrons   1134.5113766423656     
 total        electrons   1134.5113766423656     
 total        electrons   1134.5113766423656     
 total        electrons   1134.5113766423656     
 total        electrons   1134.5113766423656     
 total        electrons   1134.5113766423656     
 total        electrons   1134.5113766423656     
 total        electrons   1134.5113766423656     
 total        electrons   1134.5113766423656     
 total        electrons   1134.5113766423656     
 total        electrons   1134.5113766423656     
 total        electrons   1134.5113766423656     
 total        electrons   1134.5113766423656     
 total        electrons   1134.5113766423656     
 total        electrons   1134.5113766423656     
 total        electrons   1134.5113766423656     
 total        electrons   1134.5113766423656     
 total        electrons   1134.5113766423656     
 total        electrons   1134.5113766423656     
 total        electrons   1134.5113766423656     
 total        electrons   1134.5113766423656     
 total        electrons   1134.5113766423656     
 total        electrons   1134.5113766423656     
 total        electrons   1134.5113766423656     
 total        electrons   1134.5113766423656     
 total        electrons   1134.5113766423656     
 total        electrons   1134.5113766423656     
 total        electrons   1134.5113766423656     
 total        electrons   1134.5113766423656     
 total        electrons   1134.5113766423656     
 total        electrons   1134.5113766423656     
 total        electrons   1134.5113766423656     
 total        electrons   1134.5113766423656     
 total        electrons   1134.5113766423656     
 total        electrons   1134.5113766423656     
 total        electrons   1134.5113766423656     
 total        electrons   1134.5113766423656     
 total        electrons   1134.5113766423656     
 total        electrons   1134.5113766423656     
 total        electrons   1134.5113766423656     
 total        electrons   1134.5113766423656     
 total        electrons   1134.5113766423656     
 total        electrons   1134.5113766423656     
 total        electrons   1134.5113766423656     
 total        electrons   1134.5113766423656     
 total        electrons   1134.5113766423656     
 total        electrons   1134.5113766423656     
 total        electrons   1134.5113766423656     
 total        electrons   1134.5113766423656     
 total        electrons   1134.5113766423656     
 total        electrons   1134.5113766423656     
 total        electrons   1134.5113766423656     
 total        electrons   1134.5113766423656     
 total        electrons   1134.5113766423656     
 total        electrons   1134.5113766423656     
 total        electrons   1134.5113766423656     
 total        electrons   1134.5113766423656     
 total        electrons   1134.5113766423656     
 total        electrons   1134.5113766423656     
 total        electrons   1134.5113766423656     
 total        electrons   1134.5113766423656     
 total        electrons   1134.5113766423656     
 total        electrons   1134.5113766423656     
 total        electrons   1134.5113766423656     
 total        electrons   1134.5113766423656     
 total        electrons   1134.5113766423656     
 total        electrons   1134.5113766423656     
 entering main loop
       N       E                     dE             d eps       ncg     rms          rms(c)
DAV:   1     0.227281761171E+04    0.22728E+04   -0.95221E+04  8096   0.123E+03
DAV:   2    -0.216440888720E+03   -0.24893E+04   -0.23088E+04  9360   0.300E+02
DAV:   3    -0.622684816241E+03   -0.40624E+03   -0.38658E+03 11472   0.141E+02
DAV:   4    -0.655850915485E+03   -0.33166E+02   -0.31838E+02 13088   0.451E+01
DAV:   5    -0.657748154349E+03   -0.18972E+01   -0.18367E+01 13744   0.104E+01    0.136E+02
RMM:   6    -0.607637981349E+03    0.50110E+02   -0.11435E+03 11397   0.900E+01    0.734E+01
RMM:   7    -0.662798093830E+03   -0.55160E+02   -0.36453E+02 10659   0.511E+01    0.508E+01
RMM:   8    -0.571381985928E+03    0.91416E+02   -0.92502E+01 10450   0.242E+01    0.319E+01
RMM:   9    -0.569761481979E+03    0.16205E+01   -0.43590E+01 10267   0.158E+01    0.273E+01
RMM:  10    -0.556373138187E+03    0.13388E+02   -0.14509E+01 11019   0.808E+00    0.215E+01
RMM:  11    -0.553386163763E+03    0.29870E+01   -0.68906E+00  8314   0.888E+00    0.174E+01
RMM:  12    -0.553192108098E+03    0.19406E+00   -0.44073E+00 10907   0.317E+00    0.162E+01
RMM:  13    -0.552765921554E+03    0.42619E+00   -0.79808E-01  8662   0.251E+00    0.145E+01
RMM:  14    -0.552233697617E+03    0.53222E+00   -0.68839E-01  8591   0.260E+00    0.118E+01
RMM:  15    -0.551801022309E+03    0.43268E+00   -0.23268E+00  8240   0.514E+00    0.747E+00
RMM:  16    -0.551298623883E+03    0.50240E+00   -0.17637E+00  8158   0.438E+00    0.319E+00
RMM:  17    -0.551347007551E+03   -0.48384E-01   -0.10028E+00 11013   0.151E+00    0.245E+00
RMM:  18    -0.551312884045E+03    0.34124E-01   -0.17390E-01  8822   0.120E+00    0.182E+00
RMM:  19    -0.551307372086E+03    0.55120E-02   -0.14782E-01  9966   0.950E-01    0.141E+00
RMM:  20    -0.551281881627E+03    0.25490E-01   -0.60876E-02 10386   0.555E-01    0.610E-01
RMM:  21    -0.551281577329E+03    0.30430E-03   -0.22273E-02 10275   0.330E-01    0.484E-01
RMM:  22    -0.551281296122E+03    0.28121E-03   -0.10647E-02  8912   0.302E-01    0.379E-01
RMM:  23    -0.551280601250E+03    0.69487E-03   -0.63755E-03 10663   0.157E-01    0.156E-01
RMM:  24    -0.551281528065E+03   -0.92681E-03   -0.26320E-03 10975   0.734E-02    0.102E-01
RMM:  25    -0.551282654661E+03   -0.11266E-02   -0.10188E-03 10627   0.549E-02    0.733E-02
RMM:  26    -0.551283574100E+03   -0.91944E-03   -0.48786E-04 10310   0.458E-02    0.719E-02
RMM:  27    -0.551284105024E+03   -0.53092E-03   -0.23472E-04  9037   0.413E-02    0.412E-02
RMM:  28    -0.551285139046E+03   -0.10340E-02   -0.32613E-04  9855   0.277E-02    0.383E-02
RMM:  29    -0.551285724282E+03   -0.58524E-03   -0.21345E-04 10224   0.267E-02    0.405E-02
RMM:  30    -0.551285883309E+03   -0.15903E-03   -0.92082E-05  9709   0.161E-02    0.216E-02
RMM:  31    -0.551286010525E+03   -0.12722E-03   -0.32513E-05  9272   0.113E-02    0.164E-02
RMM:  32    -0.551286099906E+03   -0.89381E-04   -0.32929E-05  8526   0.151E-02    0.157E-02
RMM:  33    -0.551286149695E+03   -0.49788E-04   -0.13670E-05  6949   0.659E-03    0.644E-03
RMM:  34    -0.551286271685E+03   -0.12199E-03   -0.64738E-06  6223   0.533E-03    0.970E-03
RMM:  35    -0.551286402487E+03   -0.13080E-03   -0.83148E-06  6510   0.653E-03    0.509E-03
RMM:  36    -0.551286493534E+03   -0.91047E-04   -0.65129E-06  6196   0.419E-03    0.301E-03
RMM:  37    -0.551286529647E+03   -0.36113E-04   -0.31725E-06  5807   0.489E-03    0.511E-03
RMM:  38    -0.551286562717E+03   -0.33069E-04   -0.35743E-06  5956   0.481E-03    0.272E-03
RMM:  39    -0.551286569535E+03   -0.68178E-05   -0.82082E-07  4909   0.283E-03    0.218E-03
RMM:  40    -0.551286576463E+03   -0.69283E-05   -0.90278E-07  5003   0.280E-03    0.160E-03
RMM:  41    -0.551286579442E+03   -0.29795E-05   -0.51454E-07  4290   0.154E-03    0.329E-04
RMM:  42    -0.551286580916E+03   -0.14732E-05   -0.24319E-07  3667   0.110E-03    0.458E-04
RMM:  43    -0.551286582049E+03   -0.11332E-05   -0.19014E-07  3706   0.109E-03    0.181E-04
RMM:  44    -0.551286582458E+03   -0.40975E-06   -0.11342E-07  2691   0.732E-04
   1 F= -.55128658E+03 E0= -.55128209E+03  d E =-.551287E+03
 curvature:   0.00 expect dE= 0.000E+00 dE for cont linesearch  0.000E+00
 trial: gam= 0.00000 g(F)=  0.329E-01 g(S)=  0.000E+00 ort = 0.000E+00 (trialstep = 0.100E+01)
 search vector abs. value=  0.329E-01
 bond charge predicted
       N       E                     dE             d eps       ncg     rms          rms(c)
DAV:   1    -0.551311192338E+03   -0.24610E-01   -0.56119E-01  8928   0.151E+00    0.249E-01
RMM:   2    -0.551310910353E+03    0.28199E-03   -0.10383E-02  9527   0.256E-01    0.155E-01
RMM:   3    -0.551315080401E+03   -0.41700E-02   -0.46617E-03  9785   0.198E-01    0.550E-01
RMM:   4    -0.551310795269E+03    0.42851E-02   -0.19993E-03  9620   0.135E-01    0.116E-01
RMM:   5    -0.551310784185E+03    0.11084E-04   -0.75229E-04  9080   0.828E-02    0.109E-01
RMM:   6    -0.551310701628E+03    0.82557E-04   -0.32456E-04  9735   0.471E-02    0.743E-02
RMM:   7    -0.551310669686E+03    0.31942E-04   -0.14545E-04  8874   0.361E-02    0.546E-02
RMM:   8    -0.551310648721E+03    0.20966E-04   -0.77155E-05  9815   0.219E-02    0.280E-02
RMM:   9    -0.551310645533E+03    0.31876E-05   -0.34202E-05  8316   0.176E-02    0.204E-02
RMM:  10    -0.551310641143E+03    0.43904E-05   -0.11636E-05  6914   0.924E-03    0.735E-03
RMM:  11    -0.551310641606E+03   -0.46342E-06   -0.61450E-06  6266   0.670E-03
   2 F= -.55131064E+03 E0= -.55130622E+03  d E =-.240591E-01
 trial-energy change:   -0.024059  1 .order   -0.023725   -0.032901   -0.014548
 step:   1.6703(harm=  1.7927)  dis= 0.00000  next Energy=  -551.315619 (dE=-0.290E-01)
 bond charge predicted
       N       E                     dE             d eps       ncg     rms          rms(c)
DAV:   1    -0.551315968476E+03   -0.53273E-02   -0.25729E-01  8584   0.102E+00    0.177E-01
RMM:   2    -0.551315802534E+03    0.16594E-03   -0.48884E-03  9488   0.178E-01    0.114E-01
RMM:   3    -0.551317950212E+03   -0.21477E-02   -0.22762E-03  9675   0.141E-01    0.397E-01
RMM:   4    -0.551315741309E+03    0.22089E-02   -0.10740E-03  9557   0.979E-02    0.890E-02
RMM:   5    -0.551315715954E+03    0.25355E-04   -0.37607E-04  9102   0.600E-02    0.757E-02
RMM:   6    -0.551315689840E+03    0.26114E-04   -0.17915E-04  9754   0.345E-02    0.611E-02
RMM:   7    -0.551315663947E+03    0.25892E-04   -0.80307E-05  8722   0.273E-02    0.402E-02
RMM:   8    -0.551315650263E+03    0.13684E-04   -0.40326E-05  9210   0.157E-02    0.169E-02
RMM:   9    -0.551315650980E+03   -0.71704E-06   -0.17975E-05  7653   0.124E-02    0.167E-02
RMM:  10    -0.551315647857E+03    0.31234E-05   -0.57733E-06  6172   0.816E-03    0.575E-03
RMM:  11    -0.551315648024E+03   -0.16761E-06   -0.30663E-06  5789   0.415E-03
   3 F= -.55131565E+03 E0= -.55131127E+03  d E =-.290656E-01
 curvature:  -0.87 expect dE=-0.686E-04 dE for cont linesearch -0.140E-07
 ZBRENT: extrapolating
 opt :   1.6714  next Energy=  -551.315648 (dE=-0.291E-01)
 bond charge predicted
       N       E                     dE             d eps       ncg     rms          rms(c)
DAV:   1    -0.551315648118E+03   -0.26134E-06   -0.23896E-06  7128   0.787E-03    0.358E-03
RMM:   2    -0.551315649819E+03   -0.17015E-05   -0.38329E-06  5858   0.735E-03    0.105E-02
RMM:   3    -0.551315648441E+03    0.13782E-05   -0.13068E-06  5063   0.566E-03    0.211E-03
RMM:   4    -0.551315648458E+03   -0.16400E-07   -0.26694E-07  4444   0.130E-03    0.176E-03
RMM:   5    -0.551315648598E+03   -0.13995E-06   -0.14528E-07  4155   0.162E-03
   4 F= -.55131565E+03 E0= -.55131127E+03  d E =-.290661E-01
 curvature:  -0.76 expect dE=-0.594E-04 dE for cont linesearch -0.400E-09
 trial: gam= 0.00225 g(F)=  0.782E-04 g(S)=  0.000E+00 ort = 0.416E-05 (trialstep = 0.113E+01)
 search vector abs. value=  0.784E-04
 bond charge predicted
       N       E                     dE             d eps       ncg     rms          rms(c)
DAV:   1    -0.551315711611E+03   -0.63153E-04   -0.17223E-03  8504   0.851E-02    0.144E-02
RMM:   2    -0.551315710689E+03    0.92168E-06   -0.30847E-05  8643   0.146E-02    0.101E-02
RMM:   3    -0.551315720298E+03   -0.96089E-05   -0.15911E-05  7487   0.131E-02    0.331E-02
RMM:   4    -0.551315710996E+03    0.93026E-05   -0.70398E-06  6618   0.926E-03    0.669E-03
RMM:   5    -0.551315711160E+03   -0.16471E-06   -0.21372E-06  5352   0.503E-03
   5 F= -.55131571E+03 E0= -.55131132E+03  d E =-.625627E-04
 trial-energy change:   -0.000063  1 .order   -0.000061   -0.000089   -0.000033
 step:   1.8053(harm=  1.8053)  dis= 0.00231  next Energy=  -551.315719 (dE=-0.706E-04)
 reached required accuracy - stopping structural energy minimisation
 augmentation electrons   27.756173922089875     
 soft         electrons   238.36415480630896     
 augmentation electrons   27.756173922089875     
 soft         electrons   238.36415480630896     
 augmentation electrons   27.756173922089875     
 soft         electrons   238.36415480630896     
 augmentation electrons   27.756173922089875     
 soft         electrons   238.36415480630896     
 augmentation electrons   27.756173922089875     
 soft         electrons   238.36415480630896     
 augmentation electrons   27.756173922089875     
 soft         electrons   238.36415480630896     
 augmentation electrons   27.756173922089875     
 soft         electrons   238.36415480630896     
 augmentation electrons   27.756173922089875     
 soft         electrons   238.36415480630896     
 augmentation electrons   27.756173922089875     
 soft         electrons   238.36415480630896     
 augmentation electrons   27.756173922089875     
 soft         electrons   238.36415480630896     
 augmentation electrons   27.756173922089875     
 soft         electrons   238.36415480630896     
 augmentation electrons   27.756173922089875     
 soft         electrons   238.36415480630896     
 augmentation electrons   27.756173922089875     
 soft         electrons   238.36415480630896     
 augmentation electrons   27.756173922089875     
 soft         electrons   238.36415480630896     
 augmentation electrons   27.756173922089875     
 soft         electrons   238.36415480630896     
 augmentation electrons   27.756173922089875     
 soft         electrons   238.36415480630896     
 augmentation electrons   27.756173922089875     
 soft         electrons   238.36415480630896     
 augmentation electrons   27.756173922089875     
 soft         electrons   238.36415480630896     
 augmentation electrons   27.756173922089875     
 soft         electrons   238.36415480630896     
 augmentation electrons   27.756173922089875     
 soft         electrons   238.36415480630896     
 augmentation electrons   27.756173922089875     
 soft         electrons   238.36415480630896     
 augmentation electrons   27.756173922089875     
 soft         electrons   238.36415480630896     
 augmentation electrons   27.756173922089875     
 soft         electrons   238.36415480630896     
 augmentation electrons   27.756173922089875     
 soft         electrons   238.36415480630896     
 augmentation electrons   27.756173922089875     
 soft         electrons   238.36415480630896     
 augmentation electrons   27.756173922089875     
 soft         electrons   238.36415480630896     
 augmentation electrons   27.756173922089875     
 soft         electrons   238.36415480630896     
 augmentation electrons   27.756173922089875     
 soft         electrons   238.36415480630896     
 augmentation electrons   27.756173922089875     
 soft         electrons   238.36415480630896     
 augmentation electrons   27.756173922089875     
 soft         electrons   238.36415480630896     
 augmentation electrons   27.756173922089875     
 soft         electrons   238.36415480630896     
 augmentation electrons   27.756173922089875     
 soft         electrons   238.36415480630896     
 augmentation electrons   27.756173922089875     
 soft         electrons   238.36415480630896     
 augmentation electrons   27.756173922089875     
 soft         electrons   238.36415480630896     
 augmentation electrons   27.756173922089875     
 soft         electrons   238.36415480630896     
 augmentation electrons   27.756173922089875     
 soft         electrons   238.36415480630896     
 augmentation electrons   27.756173922089875     
 soft         electrons   238.36415480630896     
 augmentation electrons   27.756173922089875     
 soft         electrons   238.36415480630896     
 augmentation electrons   27.756173922089875     
 soft         electrons   238.36415480630896     
 augmentation electrons   27.756173922089875     
 soft         electrons   238.36415480630896     
 augmentation electrons   27.756173922089875     
 soft         electrons   238.36415480630896     
 augmentation electrons   27.756173922089875     
 soft         electrons   238.36415480630896     
 augmentation electrons   27.756173922089875     
 soft         electrons   238.36415480630896     
 augmentation electrons   27.756173922089875     
 soft         electrons   238.36415480630896     
 augmentation electrons   27.756173922089875     
 soft         electrons   238.36415480630896     
 augmentation electrons   27.756173922089875     
 soft         electrons   238.36415480630896     
 augmentation electrons   27.756173922089875     
 augmentation electrons   27.756173922089875     
 soft         electrons   238.36415480630896     
 augmentation electrons   27.756173922089875     
 soft         electrons   238.36415480630896     
 augmentation electrons   27.756173922089875     
 soft         electrons   238.36415480630896     
 augmentation electrons   27.756173922089875     
 soft         electrons   238.36415480630896     
 augmentation electrons   27.756173922089875     
 soft         electrons   238.36415480630896     
 augmentation electrons   27.756173922089875     
 soft         electrons   238.36415480630896     
 augmentation electrons   27.756173922089875     
 soft         electrons   238.36415480630896     
 augmentation electrons   27.756173922089875     
 soft         electrons   238.36415480630896     
 augmentation electrons   27.756173922089875     
 soft         electrons   238.36415480630896     
 augmentation electrons   27.756173922089875     
 soft         electrons   238.36415480630896     
 augmentation electrons   27.756173922089875     
 soft         electrons   238.36415480630896     
 augmentation electrons   27.756173922089875     
 soft         electrons   238.36415480630896     
 augmentation electrons   27.756173922089875     
 soft         electrons   238.36415480630896     
 augmentation electrons   27.756173922089875     
 soft         electrons   238.36415480630896     
 augmentation electrons   27.756173922089875     
 soft         electrons   238.36415480630896     
 augmentation electrons   27.756173922089875     
 soft         electrons   238.36415480630896     
 augmentation electrons   27.756173922089875     
 soft         electrons   238.36415480630896     
 augmentation electrons   27.756173922089875     
 soft         electrons   238.36415480630896     
 augmentation electrons   27.756173922089875     
 soft         electrons   238.36415480630896     
 augmentation electrons   27.756173922089875     
 soft         electrons   238.36415480630896     
 augmentation electrons   27.756173922089875     
 soft         electrons   238.36415480630896     
 augmentation electrons   27.756173922089875     
 soft         electrons   238.36415480630896     
 augmentation electrons   27.756173922089875     
 soft         electrons   238.36415480630896     
 augmentation electrons   27.756173922089875     
 soft         electrons   238.36415480630896     
 augmentation electrons   27.756173922089875     
 soft         electrons   238.36415480630896     
 soft         electrons   238.36415480630896     
 total        electrons   266.12032872839882     
 total        electrons   266.12032872839882     
 total        electrons   266.12032872839882     
 total        electrons   266.12032872839882     
 total        electrons   266.12032872839882     
 total        electrons   266.12032872839882     
 total        electrons   266.12032872839882     
 total        electrons   266.12032872839882     
 total        electrons   266.12032872839882     
 total        electrons   266.12032872839882     
 total        electrons   266.12032872839882     
 total        electrons   266.12032872839882     
 total        electrons   266.12032872839882     
 total        electrons   266.12032872839882     
 total        electrons   266.12032872839882     
 total        electrons   266.12032872839882     
 total        electrons   266.12032872839882     
 total        electrons   266.12032872839882     
 total        electrons   266.12032872839882     
 total        electrons   266.12032872839882     
 total        electrons   266.12032872839882     
 total        electrons   266.12032872839882     
 total        electrons   266.12032872839882     
 total        electrons   266.12032872839882     
 total        electrons   266.12032872839882     
 total        electrons   266.12032872839882     
 total        electrons   266.12032872839882     
 total        electrons   266.12032872839882     
 total        electrons   266.12032872839882     
 total        electrons   266.12032872839882     
 total        electrons   266.12032872839882     
 total        electrons   266.12032872839882     
 total        electrons   266.12032872839882     
 total        electrons   266.12032872839882     
 total        electrons   266.12032872839882     
 total        electrons   266.12032872839882     
 total        electrons   266.12032872839882     
 total        electrons   266.12032872839882     
 total        electrons   266.12032872839882     
 total        electrons   266.12032872839882     
 total        electrons   266.12032872839882     
 total        electrons   266.12032872839882     
 total        electrons   266.12032872839882     
 total        electrons   266.12032872839882     
 total        electrons   266.12032872839882     
 total        electrons   266.12032872839882     
 total        electrons   266.12032872839882     
 total        electrons   266.12032872839882     
 total        electrons   266.12032872839882     
 total        electrons   266.12032872839882     
 total        electrons   266.12032872839882     
 total        electrons   266.12032872839882     
 total        electrons   266.12032872839882     
 total        electrons   266.12032872839882     
 total        electrons   266.12032872839882     
 total        electrons   266.12032872839882     
 total        electrons   266.12032872839882     
 total        electrons   266.12032872839882     
 total        electrons   266.12032872839882     
 total        electrons   266.12032872839882     
 total        electrons   266.12032872839882     
 total        electrons   266.12032872839882     
 total        electrons   266.12032872839882     
 total        electrons   266.12032872839882     
 total        electrons   266.12032872839882     
 total        electrons   266.12032872839882     
 total        electrons   266.12032872839882     
 total        electrons   266.12032872839882     
 total        electrons   266.12032872839882     
 total        electrons   266.12032872839882     
 total        electrons   266.12032872839882     
 total        electrons   266.12032872839882     
Note: The following floating-point exceptions are signalling: IEEE_OVERFLOW_FLAG
Note: The following floating-point exceptions are signalling: IEEE_OVERFLOW_FLAG
Note: The following floating-point exceptions are signalling: IEEE_OVERFLOW_FLAG
Note: The following floating-point exceptions are signalling: IEEE_OVERFLOW_FLAG
Note: The following floating-point exceptions are signalling: IEEE_OVERFLOW_FLAG
Note: The following floating-point exceptions are signalling: IEEE_OVERFLOW_FLAG
Note: The following floating-point exceptions are signalling: IEEE_OVERFLOW_FLAG
Note: The following floating-point exceptions are signalling: IEEE_OVERFLOW_FLAG
Note: The following floating-point exceptions are signalling: IEEE_OVERFLOW_FLAG
Note: The following floating-point exceptions are signalling: IEEE_OVERFLOW_FLAG
Note: The following floating-point exceptions are signalling: IEEE_OVERFLOW_FLAG
Note: The following floating-point exceptions are signalling: IEEE_OVERFLOW_FLAG
Note: The following floating-point exceptions are signalling: IEEE_OVERFLOW_FLAG
Note: The following floating-point exceptions are signalling: IEEE_OVERFLOW_FLAG
Note: The following floating-point exceptions are signalling: IEEE_OVERFLOW_FLAG
Note: The following floating-point exceptions are signalling: IEEE_OVERFLOW_FLAG
Note: The following floating-point exceptions are signalling: IEEE_OVERFLOW_FLAG
Note: The following floating-point exceptions are signalling: IEEE_OVERFLOW_FLAG
Note: The following floating-point exceptions are signalling: IEEE_OVERFLOW_FLAG
Note: The following floating-point exceptions are signalling: IEEE_OVERFLOW_FLAG
Note: The following floating-point exceptions are signalling: IEEE_OVERFLOW_FLAG
Note: The following floating-point exceptions are signalling: IEEE_OVERFLOW_FLAG
Note: The following floating-point exceptions are signalling: IEEE_OVERFLOW_FLAG
Note: The following floating-point exceptions are signalling: IEEE_OVERFLOW_FLAG
Note: The following floating-point exceptions are signalling: IEEE_OVERFLOW_FLAG
Note: The following floating-point exceptions are signalling: IEEE_OVERFLOW_FLAG
Note: The following floating-point exceptions are signalling: IEEE_OVERFLOW_FLAG
Note: The following floating-point exceptions are signalling: IEEE_OVERFLOW_FLAG
Note: The following floating-point exceptions are signalling: IEEE_OVERFLOW_FLAG
Note: The following floating-point exceptions are signalling: IEEE_OVERFLOW_FLAG
Note: The following floating-point exceptions are signalling: IEEE_OVERFLOW_FLAG
Note: The following floating-point exceptions are signalling: IEEE_OVERFLOW_FLAG
Note: The following floating-point exceptions are signalling: IEEE_OVERFLOW_FLAG
Note: The following floating-point exceptions are signalling: IEEE_OVERFLOW_FLAG
Note: The following floating-point exceptions are signalling: IEEE_OVERFLOW_FLAG
Note: The following floating-point exceptions are signalling: IEEE_OVERFLOW_FLAG
Note: The following floating-point exceptions are signalling: IEEE_OVERFLOW_FLAG
Note: The following floating-point exceptions are signalling: IEEE_OVERFLOW_FLAG
Note: The following floating-point exceptions are signalling: IEEE_OVERFLOW_FLAG
Note: The following floating-point exceptions are signalling: IEEE_OVERFLOW_FLAG
Note: The following floating-point exceptions are signalling: IEEE_OVERFLOW_FLAG
Note: The following floating-point exceptions are signalling: IEEE_OVERFLOW_FLAG
Note: The following floating-point exceptions are signalling: IEEE_OVERFLOW_FLAG
Note: The following floating-point exceptions are signalling: IEEE_OVERFLOW_FLAG
Note: The following floating-point exceptions are signalling: IEEE_OVERFLOW_FLAG
Note: The following floating-point exceptions are signalling: IEEE_OVERFLOW_FLAG
Note: The following floating-point exceptions are signalling: IEEE_OVERFLOW_FLAG
Note: The following floating-point exceptions are signalling: IEEE_OVERFLOW_FLAG
Note: The following floating-point exceptions are signalling: IEEE_OVERFLOW_FLAG
Note: The following floating-point exceptions are signalling: IEEE_OVERFLOW_FLAG
Note: The following floating-point exceptions are signalling: IEEE_OVERFLOW_FLAG
Note: The following floating-point exceptions are signalling: IEEE_OVERFLOW_FLAG
Note: The following floating-point exceptions are signalling: IEEE_OVERFLOW_FLAG
Note: The following floating-point exceptions are signalling: IEEE_OVERFLOW_FLAG
Note: The following floating-point exceptions are signalling: IEEE_OVERFLOW_FLAG
Note: The following floating-point exceptions are signalling: IEEE_OVERFLOW_FLAG
Note: The following floating-point exceptions are signalling: IEEE_OVERFLOW_FLAG
Note: The following floating-point exceptions are signalling: IEEE_OVERFLOW_FLAG
Note: The following floating-point exceptions are signalling: IEEE_OVERFLOW_FLAG
Note: The following floating-point exceptions are signalling: IEEE_OVERFLOW_FLAG
Note: The following floating-point exceptions are signalling: IEEE_OVERFLOW_FLAG
Note: The following floating-point exceptions are signalling: IEEE_OVERFLOW_FLAG
Note: The following floating-point exceptions are signalling: IEEE_OVERFLOW_FLAG
Note: The following floating-point exceptions are signalling: IEEE_OVERFLOW_FLAG
Note: The following floating-point exceptions are signalling: IEEE_OVERFLOW_FLAG
Note: The following floating-point exceptions are signalling: IEEE_OVERFLOW_FLAG
Note: The following floating-point exceptions are signalling: IEEE_OVERFLOW_FLAG
Note: The following floating-point exceptions are signalling: IEEE_OVERFLOW_FLAG
Note: The following floating-point exceptions are signalling: IEEE_OVERFLOW_FLAG
Note: The following floating-point exceptions are signalling: IEEE_OVERFLOW_FLAG
Note: The following floating-point exceptions are signalling: IEEE_OVERFLOW_FLAG
Note: The following floating-point exceptions are signalling: IEEE_OVERFLOW_FLAG
