   73   73    1    1
  0.2139262E+02  0.1053953E-08  0.6141200E-09  0.2412750E-08  0.5000000E-15
   1.0000000000000000E-004
  CAR 
 Name                                    
    283     23    184

  0.3742002E-15  0.3742002E-15  0.1262379E-14  0.2222222E-01
    1      -13.973021   1.000000
    2      -12.850420   1.000000
    3      -12.776151   1.000000
    4      -12.736649   1.000000
    5      -11.813874   1.000000
    6      -11.700699   1.000000
    7      -11.623258   1.000000
    8      -11.589741   1.000000
    9      -11.420120   1.000000
   10      -11.264180   1.000000
   11      -11.189912   1.000000
   12      -11.063085   1.000000
   13      -11.043825   1.000000
   14      -10.717885   1.000000
   15      -10.625210   1.000000
   16      -10.329284   1.000000
   17      -10.160110   1.000000
   18      -10.127978   1.000000
   19       -9.964217   1.000000
   20       -9.751404   1.000000
   21       -9.660556   1.000000
   22       -9.574530   1.000000
   23       -9.439354   1.000000
   24       -9.330801   1.000000
   25       -8.961420   1.000000
   26       -8.879585   1.000000
   27       -8.661092   1.000000
   28       -8.491622   1.000000
   29       -8.352756   1.000000
   30       -8.277177   1.000000
   31       -8.150415   1.000000
   32       -7.838568   1.000000
   33       -7.821107   1.000000
   34       -7.449055   1.000000
   35       -7.225257   1.000000
   36       -7.203397   1.000000
   37       -7.069723   1.000000
   38       -6.992033   1.000000
   39       -6.924596   1.000000
   40       -6.748751   1.000000
   41       -6.719435   1.000000
   42       -6.603886   1.000000
   43       -6.601779   1.000000
   44       -6.511881   1.000000
   45       -6.435583   1.000000
   46       -6.429392   1.000000
   47       -6.381390   1.000000
   48       -6.151160   1.000000
   49       -6.106142   1.000000
   50       -6.077342   1.000000
   51       -5.965899   1.000000
   52       -5.801854   1.000000
   53       -5.710399   1.000000
   54       -5.709434   1.000000
   55       -5.599472   1.000000
   56       -5.569801   1.000000
   57       -5.513160   1.000000
   58       -5.351986   1.000000
   59       -5.303869   1.000000
   60       -5.295494   1.000000
   61       -5.192963   1.000000
   62       -4.960953   1.000000
   63       -4.840575   1.000000
   64       -4.738474   1.000000
   65       -4.700991   1.000000
   66       -4.635177   1.000000
   67       -4.625099   1.000000
   68       -4.578418   1.000000
   69       -4.484510   1.000000
   70       -4.373630   1.000000
   71       -4.347535   1.000000
   72       -4.218304   1.000000
   73       -4.197213   1.000000
   74       -4.148549   1.000000
   75       -4.136140   1.000000
   76       -4.105999   1.000000
   77       -4.039726   1.000000
   78       -3.955826   1.000000
   79       -3.925055   1.000000
   80       -3.914949   1.000000
   81       -3.860654   1.000000
   82       -3.833880   1.000000
   83       -3.779058   1.000000
   84       -3.778542   1.000000
   85       -3.672527   1.000000
   86       -3.664058   1.000000
   87       -3.615619   1.000000
   88       -3.530523   1.000000
   89       -3.519281   1.000000
   90       -3.498008   1.000000
   91       -3.325303   1.000000
   92       -3.320078   1.000000
   93       -3.197192   1.000000
   94       -3.084829   1.000000
   95       -2.958149   1.000000
   96       -2.859018   1.000000
   97       -2.808592   1.000000
   98       -2.801769   1.000000
   99       -2.722259   1.000000
  100       -2.647349   1.000000
  101       -2.548726   1.000000
  102       -2.509740   1.000000
  103       -2.358919   1.000000
  104       -2.347421   1.000000
  105       -2.332797   1.000000
  106       -2.284516   1.000000
  107       -2.168544   1.000000
  108       -2.051057   1.000000
  109       -2.047122   1.000000
  110       -1.968504   1.000000
  111       -1.940265   1.000000
  112       -1.859588   1.000000
  113       -1.833916   1.000000
  114       -1.787222   1.000000
  115       -1.780468   1.000000
  116       -1.770854   1.000000
  117       -1.688623   1.000000
  118       -1.653257   1.000000
  119       -1.629657   1.000000
  120       -1.539515   1.000000
  121       -1.120692   1.000000
  122       -0.998268   1.000000
  123       -0.993506   1.000000
  124       -0.928309   1.000000
  125       -0.812012   1.000000
  126       -0.686430   1.000000
  127       -0.610254   1.000000
  128       -0.510414   1.000000
  129       -0.380914   1.000000
  130       -0.340369   1.000000
  131       -0.186250   1.000000
  132       -0.169952   1.000000
  133       -0.097138   1.000000
  134        0.014403   1.000000
  135        0.217900   1.000912
  136        0.233981   1.001851
  137        0.319855   1.026148
  138        0.329791   1.030470
  139        0.387262   1.003675
  140        0.389310   0.999294
  141        0.441385   0.754578
  142        0.509547   0.213633
  143        0.514741   0.179697
  144        0.607254  -0.033696
  145        0.624422  -0.027094
  146        0.627941  -0.025488
  147        0.676472  -0.007177
  148        0.680984  -0.006162
  149        0.819544  -0.000006
  150        0.854876  -0.000000
  151        1.070970  -0.000000
  152        1.083383  -0.000000
  153        1.188585  -0.000000
  154        1.199071  -0.000000
  155        1.290978  -0.000000
  156        1.297765  -0.000000
  157        1.350339  -0.000000
  158        1.364954  -0.000000
  159        1.401536  -0.000000
  160        1.428011  -0.000000
  161        1.471054  -0.000000
  162        1.472817  -0.000000
  163        1.526039  -0.000000
  164        1.601805  -0.000000
  165        1.642371  -0.000000
  166        1.725327  -0.000000
  167        1.741351  -0.000000
  168        1.745884  -0.000000
  169        1.771300  -0.000000
  170        1.799751  -0.000000
  171        1.809243  -0.000000
  172        1.832399  -0.000000
  173        1.910144  -0.000000
  174        1.998207  -0.000000
  175        2.024019  -0.000000
  176        2.169068  -0.000000
  177        2.300366  -0.000000
  178        2.306596  -0.000000
  179        2.375521  -0.000000
  180        2.481004  -0.000000
  181        2.568489  -0.000000
  182        2.715761  -0.000000
  183        3.015740  -0.000000
  184        3.571910   0.000000

  0.2000000E+00  0.3742002E-15  0.1262379E-14  0.4444444E-01
    1      -13.924508   1.000000
    2      -13.218516   1.000000
    3      -12.697335   1.000000
    4      -12.331200   1.000000
    5      -12.038540   1.000000
    6      -11.802905   1.000000
    7      -11.643490   1.000000
    8      -11.346951   1.000000
    9      -11.283417   1.000000
   10      -11.237617   1.000000
   11      -11.122945   1.000000
   12      -11.108287   1.000000
   13      -10.954922   1.000000
   14      -10.787335   1.000000
   15      -10.673774   1.000000
   16      -10.575406   1.000000
   17      -10.508034   1.000000
   18      -10.185358   1.000000
   19       -9.738451   1.000000
   20       -9.687297   1.000000
   21       -9.561963   1.000000
   22       -9.484782   1.000000
   23       -9.412127   1.000000
   24       -9.373949   1.000000
   25       -9.150982   1.000000
   26       -8.863739   1.000000
   27       -8.530207   1.000000
   28       -8.346570   1.000000
   29       -8.248087   1.000000
   30       -8.135748   1.000000
   31       -8.113909   1.000000
   32       -8.078993   1.000000
   33       -7.699470   1.000000
   34       -7.500497   1.000000
   35       -7.394398   1.000000
   36       -7.274407   1.000000
   37       -7.179904   1.000000
   38       -7.119168   1.000000
   39       -6.981631   1.000000
   40       -6.804524   1.000000
   41       -6.723244   1.000000
   42       -6.653896   1.000000
   43       -6.580250   1.000000
   44       -6.541555   1.000000
   45       -6.491609   1.000000
   46       -6.354312   1.000000
   47       -6.185629   1.000000
   48       -6.154081   1.000000
   49       -6.080285   1.000000
   50       -6.022999   1.000000
   51       -5.904400   1.000000
   52       -5.756134   1.000000
   53       -5.695581   1.000000
   54       -5.616317   1.000000
   55       -5.555105   1.000000
   56       -5.473906   1.000000
   57       -5.449689   1.000000
   58       -5.354350   1.000000
   59       -5.345176   1.000000
   60       -5.311668   1.000000
   61       -5.188630   1.000000
   62       -5.116871   1.000000
   63       -4.855716   1.000000
   64       -4.771671   1.000000
   65       -4.726133   1.000000
   66       -4.651623   1.000000
   67       -4.643053   1.000000
   68       -4.573149   1.000000
   69       -4.495284   1.000000
   70       -4.340217   1.000000
   71       -4.295751   1.000000
   72       -4.192902   1.000000
   73       -4.189733   1.000000
   74       -4.171482   1.000000
   75       -4.141424   1.000000
   76       -4.099020   1.000000
   77       -4.041649   1.000000
   78       -3.935524   1.000000
   79       -3.929817   1.000000
   80       -3.916794   1.000000
   81       -3.903496   1.000000
   82       -3.893216   1.000000
   83       -3.743819   1.000000
   84       -3.729313   1.000000
   85       -3.647190   1.000000
   86       -3.594829   1.000000
   87       -3.575848   1.000000
   88       -3.554607   1.000000
   89       -3.519722   1.000000
   90       -3.499261   1.000000
   91       -3.485380   1.000000
   92       -3.284658   1.000000
   93       -3.185883   1.000000
   94       -3.160582   1.000000
   95       -3.021026   1.000000
   96       -2.937486   1.000000
   97       -2.859596   1.000000
   98       -2.848097   1.000000
   99       -2.743446   1.000000
  100       -2.705312   1.000000
  101       -2.643952   1.000000
  102       -2.358565   1.000000
  103       -2.294322   1.000000
  104       -2.253609   1.000000
  105       -2.237254   1.000000
  106       -2.198721   1.000000
  107       -2.163457   1.000000
  108       -2.093583   1.000000
  109       -2.015152   1.000000
  110       -1.969778   1.000000
  111       -1.965031   1.000000
  112       -1.865008   1.000000
  113       -1.840964   1.000000
  114       -1.728155   1.000000
  115       -1.705693   1.000000
  116       -1.695878   1.000000
  117       -1.673404   1.000000
  118       -1.595705   1.000000
  119       -1.518182   1.000000
  120       -1.469762   1.000000
  121       -1.116575   1.000000
  122       -1.088130   1.000000
  123       -1.027747   1.000000
  124       -0.981958   1.000000
  125       -0.890733   1.000000
  126       -0.763276   1.000000
  127       -0.611041   1.000000
  128       -0.538840   1.000000
  129       -0.524592   1.000000
  130       -0.411409   1.000000
  131       -0.364916   1.000000
  132       -0.255141   1.000000
  133       -0.171704   1.000000
  134       -0.059360   1.000000
  135        0.073706   1.000000
  136        0.162152   1.000050
  137        0.340699   1.034116
  138        0.375721   1.022284
  139        0.389372   0.999155
  140        0.397589   0.977888
  141        0.497150   0.303459
  142        0.527722   0.105975
  143        0.624431  -0.027090
  144        0.673836  -0.007826
  145        0.682431  -0.005862
  146        0.717133  -0.001511
  147        0.735416  -0.000659
  148        0.745930  -0.000395
  149        0.773706  -0.000091
  150        0.802792  -0.000016
  151        1.117258  -0.000000
  152        1.159417  -0.000000
  153        1.208776  -0.000000
  154        1.248250  -0.000000
  155        1.306635  -0.000000
  156        1.311439  -0.000000
  157        1.355657  -0.000000
  158        1.358550  -0.000000
  159        1.459781  -0.000000
  160        1.484321  -0.000000
  161        1.509084  -0.000000
  162        1.539043  -0.000000
  163        1.581750  -0.000000
  164        1.612010  -0.000000
  165        1.614637  -0.000000
  166        1.703706  -0.000000
  167        1.717895  -0.000000
  168        1.739101  -0.000000
  169        1.772324  -0.000000
  170        1.791443  -0.000000
  171        1.855995  -0.000000
  172        1.909582  -0.000000
  173        1.956789  -0.000000
  174        2.029959  -0.000000
  175        2.096967  -0.000000
  176        2.127913  -0.000000
  177        2.183931  -0.000000
  178        2.227173  -0.000000
  179        2.415697  -0.000000
  180        2.573169  -0.000000
  181        2.836641  -0.000000
  182        2.873094  -0.000000
  183        3.332738   0.000000
  184        3.836319   0.000000

  0.4000000E+00  0.3742002E-15  0.1262379E-14  0.4444444E-01
    1      -13.780164   1.000000
    2      -13.542575   1.000000
    3      -12.566487   1.000000
    4      -12.337732   1.000000
    5      -11.792793   1.000000
    6      -11.770694   1.000000
    7      -11.716544   1.000000
    8      -11.265958   1.000000
    9      -11.250282   1.000000
   10      -11.216811   1.000000
   11      -11.105764   1.000000
   12      -11.075354   1.000000
   13      -10.938583   1.000000
   14      -10.852942   1.000000
   15      -10.811623   1.000000
   16      -10.682926   1.000000
   17      -10.646525   1.000000
   18      -10.273211   1.000000
   19      -10.017874   1.000000
   20       -9.639836   1.000000
   21       -9.525465   1.000000
   22       -9.404371   1.000000
   23       -9.311063   1.000000
   24       -9.265001   1.000000
   25       -9.099854   1.000000
   26       -8.844884   1.000000
   27       -8.434212   1.000000
   28       -8.286128   1.000000
   29       -8.184352   1.000000
   30       -7.897265   1.000000
   31       -7.882574   1.000000
   32       -7.872818   1.000000
   33       -7.827125   1.000000
   34       -7.723695   1.000000
   35       -7.607251   1.000000
   36       -7.583572   1.000000
   37       -7.381339   1.000000
   38       -7.271689   1.000000
   39       -7.133832   1.000000
   40       -6.925210   1.000000
   41       -6.695281   1.000000
   42       -6.526228   1.000000
   43       -6.520633   1.000000
   44       -6.453629   1.000000
   45       -6.449660   1.000000
   46       -6.324661   1.000000
   47       -6.171081   1.000000
   48       -6.070441   1.000000
   49       -6.009342   1.000000
   50       -5.962568   1.000000
   51       -5.836657   1.000000
   52       -5.825431   1.000000
   53       -5.728495   1.000000
   54       -5.639254   1.000000
   55       -5.589731   1.000000
   56       -5.493392   1.000000
   57       -5.338216   1.000000
   58       -5.320333   1.000000
   59       -5.259628   1.000000
   60       -5.137587   1.000000
   61       -5.081284   1.000000
   62       -5.047194   1.000000
   63       -4.882323   1.000000
   64       -4.830961   1.000000
   65       -4.816355   1.000000
   66       -4.728626   1.000000
   67       -4.678423   1.000000
   68       -4.601241   1.000000
   69       -4.450189   1.000000
   70       -4.409901   1.000000
   71       -4.364819   1.000000
   72       -4.284449   1.000000
   73       -4.240792   1.000000
   74       -4.163042   1.000000
   75       -4.148211   1.000000
   76       -4.097541   1.000000
   77       -3.996331   1.000000
   78       -3.921787   1.000000
   79       -3.898095   1.000000
   80       -3.846362   1.000000
   81       -3.840636   1.000000
   82       -3.818970   1.000000
   83       -3.791650   1.000000
   84       -3.723874   1.000000
   85       -3.687375   1.000000
   86       -3.615664   1.000000
   87       -3.590195   1.000000
   88       -3.546359   1.000000
   89       -3.457909   1.000000
   90       -3.431972   1.000000
   91       -3.396479   1.000000
   92       -3.310912   1.000000
   93       -3.306757   1.000000
   94       -3.247184   1.000000
   95       -3.172559   1.000000
   96       -3.071999   1.000000
   97       -2.977943   1.000000
   98       -2.888880   1.000000
   99       -2.862646   1.000000
  100       -2.728580   1.000000
  101       -2.467314   1.000000
  102       -2.359492   1.000000
  103       -2.336185   1.000000
  104       -2.319644   1.000000
  105       -2.162797   1.000000
  106       -2.035744   1.000000
  107       -2.026305   1.000000
  108       -2.024159   1.000000
  109       -2.018790   1.000000
  110       -1.900663   1.000000
  111       -1.873731   1.000000
  112       -1.846080   1.000000
  113       -1.747966   1.000000
  114       -1.717040   1.000000
  115       -1.644118   1.000000
  116       -1.592155   1.000000
  117       -1.472823   1.000000
  118       -1.436838   1.000000
  119       -1.367683   1.000000
  120       -1.337451   1.000000
  121       -1.189563   1.000000
  122       -1.164529   1.000000
  123       -1.133286   1.000000
  124       -1.119882   1.000000
  125       -1.064011   1.000000
  126       -0.852182   1.000000
  127       -0.830276   1.000000
  128       -0.722983   1.000000
  129       -0.674636   1.000000
  130       -0.620003   1.000000
  131       -0.490324   1.000000
  132       -0.409553   1.000000
  133       -0.163641   1.000000
  134       -0.127766   1.000000
  135        0.015369   1.000000
  136        0.263139   1.005703
  137        0.292941   1.014340
  138        0.305148   1.019413
  139        0.337777   1.033312
  140        0.399438   0.972258
  141        0.455456   0.647401
  142        0.532012   0.085291
  143        0.599053  -0.035288
  144        0.698083  -0.003298
  145        0.705368  -0.002472
  146        0.740661  -0.000512
  147        0.807794  -0.000012
  148        0.881736  -0.000000
  149        0.965276  -0.000000
  150        0.986381  -0.000000
  151        1.116868  -0.000000
  152        1.129746  -0.000000
  153        1.247867  -0.000000
  154        1.279607  -0.000000
  155        1.348779  -0.000000
  156        1.413849  -0.000000
  157        1.422030  -0.000000
  158        1.468865  -0.000000
  159        1.545066  -0.000000
  160        1.556832  -0.000000
  161        1.581934  -0.000000
  162        1.606193  -0.000000
  163        1.640239  -0.000000
  164        1.641984  -0.000000
  165        1.671826  -0.000000
  166        1.690673  -0.000000
  167        1.714586  -0.000000
  168        1.756153  -0.000000
  169        1.805230  -0.000000
  170        1.813357  -0.000000
  171        1.846560  -0.000000
  172        1.892554  -0.000000
  173        1.912057  -0.000000
  174        1.973791  -0.000000
  175        2.013923  -0.000000
  176        2.036272  -0.000000
  177        2.087332  -0.000000
  178        2.110196  -0.000000
  179        2.157734  -0.000000
  180        2.334133  -0.000000
  181        2.695459  -0.000000
  182        2.870540  -0.000000
  183        2.892296  -0.000000
  184        3.196837  -0.000000

  0.3742002E-15  0.1111111E+00  0.1262379E-14  0.4444444E-01
    1      -13.926221   1.000000
    2      -12.810774   1.000000
    3      -12.743174   1.000000
    4      -12.697415   1.000000
    5      -11.917370   1.000000
    6      -11.669953   1.000000
    7      -11.627706   1.000000
    8      -11.598110   1.000000
    9      -11.458604   1.000000
   10      -11.307859   1.000000
   11      -11.170335   1.000000
   12      -11.066541   1.000000
   13      -11.053575   1.000000
   14      -10.690971   1.000000
   15      -10.635656   1.000000
   16      -10.333839   1.000000
   17      -10.139428   1.000000
   18      -10.089673   1.000000
   19       -9.955198   1.000000
   20       -9.724961   1.000000
   21       -9.694274   1.000000
   22       -9.595916   1.000000
   23       -9.455460   1.000000
   24       -9.329514   1.000000
   25       -8.947468   1.000000
   26       -8.901330   1.000000
   27       -8.652394   1.000000
   28       -8.487574   1.000000
   29       -8.335946   1.000000
   30       -8.299130   1.000000
   31       -7.995343   1.000000
   32       -7.886032   1.000000
   33       -7.852852   1.000000
   34       -7.498717   1.000000
   35       -7.328302   1.000000
   36       -7.302111   1.000000
   37       -7.042100   1.000000
   38       -6.972597   1.000000
   39       -6.903700   1.000000
   40       -6.690008   1.000000
   41       -6.646364   1.000000
   42       -6.608290   1.000000
   43       -6.605427   1.000000
   44       -6.516672   1.000000
   45       -6.426814   1.000000
   46       -6.408315   1.000000
   47       -6.397156   1.000000
   48       -6.158771   1.000000
   49       -6.143693   1.000000
   50       -6.001516   1.000000
   51       -5.976093   1.000000
   52       -5.804186   1.000000
   53       -5.726752   1.000000
   54       -5.644115   1.000000
   55       -5.596436   1.000000
   56       -5.537512   1.000000
   57       -5.502438   1.000000
   58       -5.293429   1.000000
   59       -5.269825   1.000000
   60       -5.247529   1.000000
   61       -5.186084   1.000000
   62       -4.964441   1.000000
   63       -4.783339   1.000000
   64       -4.765800   1.000000
   65       -4.692963   1.000000
   66       -4.638612   1.000000
   67       -4.625280   1.000000
   68       -4.555540   1.000000
   69       -4.490128   1.000000
   70       -4.379175   1.000000
   71       -4.309315   1.000000
   72       -4.256250   1.000000
   73       -4.240442   1.000000
   74       -4.160217   1.000000
   75       -4.145662   1.000000
   76       -4.115551   1.000000
   77       -4.043913   1.000000
   78       -4.038857   1.000000
   79       -4.026599   1.000000
   80       -3.971516   1.000000
   81       -3.928395   1.000000
   82       -3.887282   1.000000
   83       -3.768988   1.000000
   84       -3.752901   1.000000
   85       -3.730621   1.000000
   86       -3.687841   1.000000
   87       -3.637780   1.000000
   88       -3.543422   1.000000
   89       -3.500284   1.000000
   90       -3.498767   1.000000
   91       -3.448168   1.000000
   92       -3.288800   1.000000
   93       -3.180532   1.000000
   94       -2.912112   1.000000
   95       -2.898565   1.000000
   96       -2.886576   1.000000
   97       -2.825274   1.000000
   98       -2.770818   1.000000
   99       -2.700836   1.000000
  100       -2.620336   1.000000
  101       -2.554989   1.000000
  102       -2.520201   1.000000
  103       -2.475805   1.000000
  104       -2.416476   1.000000
  105       -2.304491   1.000000
  106       -2.221603   1.000000
  107       -2.199677   1.000000
  108       -2.111157   1.000000
  109       -2.079575   1.000000
  110       -2.039568   1.000000
  111       -2.012120   1.000000
  112       -1.893346   1.000000
  113       -1.867055   1.000000
  114       -1.837433   1.000000
  115       -1.740841   1.000000
  116       -1.698548   1.000000
  117       -1.684715   1.000000
  118       -1.643259   1.000000
  119       -1.523609   1.000000
  120       -1.470368   1.000000
  121       -1.116143   1.000000
  122       -1.083224   1.000000
  123       -0.994068   1.000000
  124       -0.858561   1.000000
  125       -0.813557   1.000000
  126       -0.684135   1.000000
  127       -0.617804   1.000000
  128       -0.583618   1.000000
  129       -0.563548   1.000000
  130       -0.271617   1.000000
  131       -0.251209   1.000000
  132       -0.190754   1.000000
  133       -0.010476   1.000000
  134        0.054219   1.000000
  135        0.131126   1.000007
  136        0.243846   1.002772
  137        0.274426   1.008322
  138        0.312485   1.022746
  139        0.340609   1.034094
  140        0.346762   1.035231
  141        0.368358   1.029433
  142        0.411571   0.927099
  143        0.580110  -0.030906
  144        0.593834  -0.035406
  145        0.609845  -0.032919
  146        0.725603  -0.001038
  147        0.731561  -0.000790
  148        0.787797  -0.000040
  149        0.844989  -0.000001
  150        1.011157  -0.000000
  151        1.109828  -0.000000
  152        1.121424  -0.000000
  153        1.133417  -0.000000
  154        1.279074  -0.000000
  155        1.288986  -0.000000
  156        1.307527  -0.000000
  157        1.327558  -0.000000
  158        1.400414  -0.000000
  159        1.454210  -0.000000
  160        1.469199  -0.000000
  161        1.476360  -0.000000
  162        1.492167  -0.000000
  163        1.519597  -0.000000
  164        1.522497  -0.000000
  165        1.622852  -0.000000
  166        1.682452  -0.000000
  167        1.740923  -0.000000
  168        1.742933  -0.000000
  169        1.755940  -0.000000
  170        1.806354  -0.000000
  171        1.853320  -0.000000
  172        1.862261  -0.000000
  173        1.874186  -0.000000
  174        1.905754  -0.000000
  175        1.956486  -0.000000
  176        2.024377  -0.000000
  177        2.061015  -0.000000
  178        2.113004  -0.000000
  179        2.338365  -0.000000
  180        2.371796  -0.000000
  181        2.481692  -0.000000
  182        2.536888  -0.000000
  183        2.595156  -0.000000
  184        3.234627   0.000000

  0.2000000E+00  0.1111111E+00  0.1262379E-14  0.4444444E-01
    1      -13.878124   1.000000
    2      -13.178118   1.000000
    3      -12.658522   1.000000
    4      -12.299751   1.000000
    5      -12.006488   1.000000
    6      -11.902872   1.000000
    7      -11.697603   1.000000
    8      -11.368844   1.000000
    9      -11.304421   1.000000
   10      -11.235371   1.000000
   11      -11.134060   1.000000
   12      -11.095748   1.000000
   13      -10.955333   1.000000
   14      -10.764000   1.000000
   15      -10.682797   1.000000
   16      -10.559021   1.000000
   17      -10.485091   1.000000
   18      -10.189583   1.000000
   19       -9.733091   1.000000
   20       -9.673230   1.000000
   21       -9.583644   1.000000
   22       -9.470667   1.000000
   23       -9.419045   1.000000
   24       -9.374619   1.000000
   25       -9.164721   1.000000
   26       -8.867186   1.000000
   27       -8.512876   1.000000
   28       -8.348565   1.000000
   29       -8.236285   1.000000
   30       -8.156135   1.000000
   31       -8.138488   1.000000
   32       -7.933239   1.000000
   33       -7.740030   1.000000
   34       -7.581900   1.000000
   35       -7.450996   1.000000
   36       -7.334683   1.000000
   37       -7.111639   1.000000
   38       -7.083186   1.000000
   39       -6.940212   1.000000
   40       -6.791136   1.000000
   41       -6.714249   1.000000
   42       -6.639618   1.000000
   43       -6.607546   1.000000
   44       -6.576229   1.000000
   45       -6.506581   1.000000
   46       -6.476888   1.000000
   47       -6.187687   1.000000
   48       -6.124730   1.000000
   49       -6.038663   1.000000
   50       -5.941234   1.000000
   51       -5.866361   1.000000
   52       -5.756051   1.000000
   53       -5.696646   1.000000
   54       -5.604460   1.000000
   55       -5.519736   1.000000
   56       -5.480020   1.000000
   57       -5.446142   1.000000
   58       -5.340016   1.000000
   59       -5.273706   1.000000
   60       -5.259506   1.000000
   61       -5.155186   1.000000
   62       -5.102414   1.000000
   63       -4.874696   1.000000
   64       -4.748410   1.000000
   65       -4.694072   1.000000
   66       -4.667878   1.000000
   67       -4.574219   1.000000
   68       -4.548946   1.000000
   69       -4.500372   1.000000
   70       -4.354775   1.000000
   71       -4.321712   1.000000
   72       -4.223319   1.000000
   73       -4.183345   1.000000
   74       -4.168954   1.000000
   75       -4.148161   1.000000
   76       -4.114382   1.000000
   77       -4.107548   1.000000
   78       -4.050181   1.000000
   79       -4.010588   1.000000
   80       -3.966559   1.000000
   81       -3.960283   1.000000
   82       -3.896722   1.000000
   83       -3.781250   1.000000
   84       -3.714329   1.000000
   85       -3.690337   1.000000
   86       -3.677581   1.000000
   87       -3.627831   1.000000
   88       -3.574131   1.000000
   89       -3.503192   1.000000
   90       -3.469069   1.000000
   91       -3.428216   1.000000
   92       -3.237865   1.000000
   93       -3.198631   1.000000
   94       -3.040791   1.000000
   95       -3.012203   1.000000
   96       -2.958521   1.000000
   97       -2.886333   1.000000
   98       -2.819429   1.000000
   99       -2.752301   1.000000
  100       -2.729629   1.000000
  101       -2.598289   1.000000
  102       -2.379049   1.000000
  103       -2.368495   1.000000
  104       -2.300685   1.000000
  105       -2.260901   1.000000
  106       -2.228945   1.000000
  107       -2.165144   1.000000
  108       -2.089897   1.000000
  109       -2.050664   1.000000
  110       -2.021520   1.000000
  111       -1.959870   1.000000
  112       -1.889273   1.000000
  113       -1.838368   1.000000
  114       -1.806794   1.000000
  115       -1.779736   1.000000
  116       -1.688670   1.000000
  117       -1.624901   1.000000
  118       -1.558954   1.000000
  119       -1.513565   1.000000
  120       -1.396347   1.000000
  121       -1.184768   1.000000
  122       -1.061549   1.000000
  123       -1.032393   1.000000
  124       -0.921092   1.000000
  125       -0.901671   1.000000
  126       -0.784145   1.000000
  127       -0.757091   1.000000
  128       -0.661438   1.000000
  129       -0.426517   1.000000
  130       -0.403426   1.000000
  131       -0.234240   1.000000
  132       -0.167241   1.000000
  133       -0.032121   1.000000
  134       -0.011869   1.000000
  135        0.049377   1.000000
  136        0.087161   1.000000
  137        0.199993   1.000386
  138        0.260045   1.005112
  139        0.332770   1.031622
  140        0.425863   0.854998
  141        0.488389   0.372915
  142        0.527853   0.105317
  143        0.538369   0.058051
  144        0.601899  -0.034906
  145        0.630910  -0.024116
  146        0.691566  -0.004222
  147        0.775716  -0.000081
  148        0.884568  -0.000000
  149        0.923567  -0.000000
  150        0.954498  -0.000000
  151        1.071815  -0.000000
  152        1.152098  -0.000000
  153        1.237092  -0.000000
  154        1.294018  -0.000000
  155        1.339719  -0.000000
  156        1.379527  -0.000000
  157        1.389908  -0.000000