 running on   72 total cores
 distrk:  each k-point on   72 cores,    1 groups
 distr:  one band on    9 cores,    8 groups
 using from now: INCAR     
 vasp.5.4.4.18Apr17-6-g9f103f2a35 (build Dec  7 2020 12:43:57) complex           
 POSCAR found type information on POSCAR  Mo V  B  H 
 POSCAR found :  4 types and      73 ions
 scaLAPACK will be used

 ----------------------------------------------------------------------------- 
|                                                                             |
|  ADVICE TO THIS USER RUNNING 'VASP/VAMP'   (HEAR YOUR MASTER'S VOICE ...):  |
|                                                                             |
|      You enforced a specific xc-type in the INCAR file,                     |
|      a different type was found on the POTCAR file                          |
|          I HOPE YOU KNOW, WHAT YOU ARE  DOING                               |
|                                                                             |
 ----------------------------------------------------------------------------- 

 LDA part: xc-table for Pade appr. of Perdew
 POSCAR, INCAR and KPOINTS ok, starting setup
 resort distribution
 resort distribution
 resort distribution
 resort distribution
 resort distribution
 resort distribution
 resort distribution
 resort distribution
 resort distribution
 resort distribution
 resort distribution
 resort distribution
 resort distribution
 resort distribution
 resort distribution
 resort distribution
 resort distribution
 resort distribution
 resort distribution
 resort distribution
 resort distribution
 resort distribution
 resort distribution
 resort distribution
 resort distribution
 resort distribution
 resort distribution
 resort distribution
 resort distribution
 resort distribution
 resort distribution
 resort distribution
 resort distribution
 resort distribution
 resort distribution
 resort distribution
 resort distribution
 resort distribution
 resort distribution
 resort distribution
 resort distribution
 resort distribution
 resort distribution
 resort distribution
 resort distribution
 resort distribution
 resort distribution
 resort distribution
 resort distribution
 resort distribution
 resort distribution
 resort distribution
 resort distribution
 resort distribution
 resort distribution
 resort distribution
 resort distribution
 resort distribution
 resort distribution
 resort distribution
 resort distribution
 resort distribution
 resort distribution
 resort distribution
 resort distribution
 resort distribution
 resort distribution
 resort distribution
 resort distribution
 resort distribution
 resort distribution
 resort distribution
 FFT: planning ...
 WAVECAR not read
 augmentation electrons   283.06513596970950     
 soft         electrons   0.0000000000000000     
 augmentation electrons   283.06513596970950     
 soft         electrons   0.0000000000000000     
 augmentation electrons   283.06513596970950     
 soft         electrons   0.0000000000000000     
 augmentation electrons   283.06513596970950     
 soft         electrons   0.0000000000000000     
 augmentation electrons   283.06513596970950     
 soft         electrons   0.0000000000000000     
 augmentation electrons   283.06513596970950     
 soft         electrons   0.0000000000000000     
 augmentation electrons   283.06513596970950     
 soft         electrons   0.0000000000000000     
 augmentation electrons   283.06513596970950     
 soft         electrons   0.0000000000000000     
 augmentation electrons   283.06513596970950     
 soft         electrons   0.0000000000000000     
 augmentation electrons   283.06513596970950     
 soft         electrons   0.0000000000000000     
 augmentation electrons   283.06513596970950     
 soft         electrons   0.0000000000000000     
 augmentation electrons   283.06513596970950     
 soft         electrons   0.0000000000000000     
 augmentation electrons   283.06513596970950     
 soft         electrons   0.0000000000000000     
 augmentation electrons   283.06513596970950     
 soft         electrons   0.0000000000000000     
 augmentation electrons   283.06513596970950     
 augmentation electrons   283.06513596970950     
 soft         electrons   0.0000000000000000     
 augmentation electrons   283.06513596970950     
 soft         electrons   0.0000000000000000     
 soft         electrons   0.0000000000000000     
 augmentation electrons   283.06513596970950     
 soft         electrons   0.0000000000000000     
 augmentation electrons   283.06513596970950     
 soft         electrons   0.0000000000000000     
 augmentation electrons   283.06513596970950     
 soft         electrons   0.0000000000000000     
 augmentation electrons   283.06513596970950     
 soft         electrons   0.0000000000000000     
 augmentation electrons   283.06513596970950     
 soft         electrons   0.0000000000000000     
 augmentation electrons   283.06513596970950     
 soft         electrons   0.0000000000000000     
 augmentation electrons   283.06513596970950     
 soft         electrons   0.0000000000000000     
 augmentation electrons   283.06513596970950     
 soft         electrons   0.0000000000000000     
 augmentation electrons   283.06513596970950     
 soft         electrons   0.0000000000000000     
 augmentation electrons   283.06513596970950     
 soft         electrons   0.0000000000000000     
 augmentation electrons   283.06513596970950     
 soft         electrons   0.0000000000000000     
 augmentation electrons   283.06513596970950     
 soft         electrons   0.0000000000000000     
 augmentation electrons   283.06513596970950     
 soft         electrons   0.0000000000000000     
 augmentation electrons   283.06513596970950     
 soft         electrons   0.0000000000000000     
 augmentation electrons   283.06513596970950     
 soft         electrons   0.0000000000000000     
 augmentation electrons   283.06513596970950     
 soft         electrons   0.0000000000000000     
 augmentation electrons   283.06513596970950     
 soft         electrons   0.0000000000000000     
 augmentation electrons   283.06513596970950     
 soft         electrons   0.0000000000000000     
 augmentation electrons   283.06513596970950     
 soft         electrons   0.0000000000000000     
 augmentation electrons   283.06513596970950     
 soft         electrons   0.0000000000000000     
 augmentation electrons   283.06513596970950     
 soft         electrons   0.0000000000000000     
 augmentation electrons   283.06513596970950     
 soft         electrons   0.0000000000000000     
 augmentation electrons   283.06513596970950     
 soft         electrons   0.0000000000000000     
 augmentation electrons   283.06513596970950     
 soft         electrons   0.0000000000000000     
 augmentation electrons   283.06513596970950     
 soft         electrons   0.0000000000000000     
 augmentation electrons   283.06513596970950     
 soft         electrons   0.0000000000000000     
 augmentation electrons   283.06513596970950     
 soft         electrons   0.0000000000000000     
 augmentation electrons   283.06513596970950     
 soft         electrons   0.0000000000000000     
 augmentation electrons   283.06513596970950     
 soft         electrons   0.0000000000000000     
 augmentation electrons   283.06513596970950     
 soft         electrons   0.0000000000000000     
 augmentation electrons   283.06513596970950     
 soft         electrons   0.0000000000000000     
 augmentation electrons   283.06513596970950     
 soft         electrons   0.0000000000000000     
 augmentation electrons   283.06513596970950     
 soft         electrons   0.0000000000000000     
 augmentation electrons   283.06513596970950     
 soft         electrons   0.0000000000000000     
 augmentation electrons   283.06513596970950     
 soft         electrons   0.0000000000000000     
 augmentation electrons   283.06513596970950     
 soft         electrons   0.0000000000000000     
 augmentation electrons   283.06513596970950     
 soft         electrons   0.0000000000000000     
 augmentation electrons   283.06513596970950     
 soft         electrons   0.0000000000000000     
 augmentation electrons   283.06513596970950     
 soft         electrons   0.0000000000000000     
 augmentation electrons   283.06513596970950     
 soft         electrons   0.0000000000000000     
 augmentation electrons   283.06513596970950     
 soft         electrons   0.0000000000000000     
 augmentation electrons   283.06513596970950     
 soft         electrons   0.0000000000000000     
 augmentation electrons   283.06513596970950     
 soft         electrons   0.0000000000000000     
 augmentation electrons   283.06513596970950     
 soft         electrons   0.0000000000000000     
 augmentation electrons   283.06513596970950     
 soft         electrons   0.0000000000000000     
 augmentation electrons   283.06513596970950     
 soft         electrons   0.0000000000000000     
 augmentation electrons   283.06513596970950     
 soft         electrons   0.0000000000000000     
 augmentation electrons   283.06513596970950     
 soft         electrons   0.0000000000000000     
 augmentation electrons   283.06513596970950     
 soft         electrons   0.0000000000000000     
 augmentation electrons   283.06513596970950     
 soft         electrons   0.0000000000000000     
 augmentation electrons   283.06513596970950     
 soft         electrons   0.0000000000000000     
 augmentation electrons   283.06513596970950     
 soft         electrons   0.0000000000000000     
 augmentation electrons   283.06513596970950     
 soft         electrons   0.0000000000000000     
 augmentation electrons   283.06513596970950     
 soft         electrons   0.0000000000000000     
 augmentation electrons   283.06513596970950     
 soft         electrons   0.0000000000000000     
 total        electrons   283.06513596970950     
 total        electrons   283.06513596970950     
 total        electrons   283.06513596970950     
 total        electrons   283.06513596970950     
 total        electrons   283.06513596970950     
 total        electrons   283.06513596970950     
 total        electrons   283.06513596970950     
 total        electrons   283.06513596970950     
 total        electrons   283.06513596970950     
 total        electrons   283.06513596970950     
 total        electrons   283.06513596970950     
 total        electrons   283.06513596970950     
 total        electrons   283.06513596970950     
 total        electrons   283.06513596970950     
 total        electrons   283.06513596970950     
 total        electrons   283.06513596970950     
 total        electrons   283.06513596970950     
 total        electrons   283.06513596970950     
 total        electrons   283.06513596970950     
 total        electrons   283.06513596970950     
 total        electrons   283.06513596970950     
 total        electrons   283.06513596970950     
 total        electrons   283.06513596970950     
 total        electrons   283.06513596970950     
 total        electrons   283.06513596970950     
 total        electrons   283.06513596970950     
 total        electrons   283.06513596970950     
 total        electrons   283.06513596970950     
 total        electrons   283.06513596970950     
 total        electrons   283.06513596970950     
 total        electrons   283.06513596970950     
 total        electrons   283.06513596970950     
 total        electrons   283.06513596970950     
 total        electrons   283.06513596970950     
 total        electrons   283.06513596970950     
 total        electrons   283.06513596970950     
 total        electrons   283.06513596970950     
 total        electrons   283.06513596970950     
 total        electrons   283.06513596970950     
 total        electrons   283.06513596970950     
 total        electrons   283.06513596970950     
 total        electrons   283.06513596970950     
 total        electrons   283.06513596970950     
 total        electrons   283.06513596970950     
 total        electrons   283.06513596970950     
 total        electrons   283.06513596970950     
 total        electrons   283.06513596970950     
 total        electrons   283.06513596970950     
 total        electrons   283.06513596970950     
 total        electrons   283.06513596970950     
 total        electrons   283.06513596970950     
 total        electrons   283.06513596970950     
 total        electrons   283.06513596970950     
 total        electrons   283.06513596970950     
 total        electrons   283.06513596970950     
 total        electrons   283.06513596970950     
 total        electrons   283.06513596970950     
 total        electrons   283.06513596970950     
 total        electrons   283.06513596970950     
 total        electrons   283.06513596970950     
 total        electrons   283.06513596970950     
 total        electrons   283.06513596970950     
 total        electrons   283.06513596970950     
 total        electrons   283.06513596970950     
 total        electrons   283.06513596970950     
 total        electrons   283.06513596970950     
 total        electrons   283.06513596970950     
 total        electrons   283.06513596970950     
 total        electrons   283.06513596970950     
 total        electrons   283.06513596970950     
 total        electrons   283.06513596970950     
 total        electrons   283.06513596970950     
 augmentation electrons   1284.9953543078657     
 soft         electrons   0.0000000000000000     
 augmentation electrons   1284.9953543078657     
 soft         electrons   0.0000000000000000     
 augmentation electrons   1284.9953543078657     
 soft         electrons   0.0000000000000000     
 augmentation electrons   1284.9953543078657     
 soft         electrons   0.0000000000000000     
 augmentation electrons   1284.9953543078657     
 soft         electrons   0.0000000000000000     
 augmentation electrons   1284.9953543078657     
 soft         electrons   0.0000000000000000     
 augmentation electrons   1284.9953543078657     
 soft         electrons   0.0000000000000000     
 augmentation electrons   1284.9953543078657     
 soft         electrons   0.0000000000000000     
 augmentation electrons   1284.9953543078657     
 soft         electrons   0.0000000000000000     
 augmentation electrons   1284.9953543078657     
 soft         electrons   0.0000000000000000     
 augmentation electrons   1284.9953543078657     
 soft         electrons   0.0000000000000000     
 augmentation electrons   1284.9953543078657     
 soft         electrons   0.0000000000000000     
 augmentation electrons   1284.9953543078657     
 soft         electrons   0.0000000000000000     
 augmentation electrons   1284.9953543078657     
 soft         electrons   0.0000000000000000     
 augmentation electrons   1284.9953543078657     
 soft         electrons   0.0000000000000000     
 augmentation electrons   1284.9953543078657     
 soft         electrons   0.0000000000000000     
 augmentation electrons   1284.9953543078657     
 soft         electrons   0.0000000000000000     
 augmentation electrons   1284.9953543078657     
 soft         electrons   0.0000000000000000     
 augmentation electrons   1284.9953543078657     
 soft         electrons   0.0000000000000000     
 augmentation electrons   1284.9953543078657     
 soft         electrons   0.0000000000000000     
 augmentation electrons   1284.9953543078657     
 soft         electrons   0.0000000000000000     
 augmentation electrons   1284.9953543078657     
 soft         electrons   0.0000000000000000     
 augmentation electrons   1284.9953543078657     
 soft         electrons   0.0000000000000000     
 augmentation electrons   1284.9953543078657     
 soft         electrons   0.0000000000000000     
 augmentation electrons   1284.9953543078657     
 soft         electrons   0.0000000000000000     
 augmentation electrons   1284.9953543078657     
 soft         electrons   0.0000000000000000     
 augmentation electrons   1284.9953543078657     
 soft         electrons   0.0000000000000000     
 augmentation electrons   1284.9953543078657     
 soft         electrons   0.0000000000000000     
 augmentation electrons   1284.9953543078657     
 soft         electrons   0.0000000000000000     
 augmentation electrons   1284.9953543078657     
 soft         electrons   0.0000000000000000     
 augmentation electrons   1284.9953543078657     
 soft         electrons   0.0000000000000000     
 augmentation electrons   1284.9953543078657     
 soft         electrons   0.0000000000000000     
 augmentation electrons   1284.9953543078657     
 soft         electrons   0.0000000000000000     
 augmentation electrons   1284.9953543078657     
 soft         electrons   0.0000000000000000     
 augmentation electrons   1284.9953543078657     
 soft         electrons   0.0000000000000000     
 augmentation electrons   1284.9953543078657     
 soft         electrons   0.0000000000000000     
 augmentation electrons   1284.9953543078657     
 soft         electrons   0.0000000000000000     
 augmentation electrons   1284.9953543078657     
 soft         electrons   0.0000000000000000     
 augmentation electrons   1284.9953543078657     
 soft         electrons   0.0000000000000000     
 augmentation electrons   1284.9953543078657     
 soft         electrons   0.0000000000000000     
 augmentation electrons   1284.9953543078657     
 augmentation electrons   1284.9953543078657     
 soft         electrons   0.0000000000000000     
 augmentation electrons   1284.9953543078657     
 soft         electrons   0.0000000000000000     
 augmentation electrons   1284.9953543078657     
 soft         electrons   0.0000000000000000     
 augmentation electrons   1284.9953543078657     
 soft         electrons   0.0000000000000000     
 augmentation electrons   1284.9953543078657     
 soft         electrons   0.0000000000000000     
 augmentation electrons   1284.9953543078657     
 soft         electrons   0.0000000000000000     
 augmentation electrons   1284.9953543078657     
 soft         electrons   0.0000000000000000     
 augmentation electrons   1284.9953543078657     
 soft         electrons   0.0000000000000000     
 augmentation electrons   1284.9953543078657     
 soft         electrons   0.0000000000000000     
 augmentation electrons   1284.9953543078657     
 soft         electrons   0.0000000000000000     
 augmentation electrons   1284.9953543078657     
 soft         electrons   0.0000000000000000     
 augmentation electrons   1284.9953543078657     
 soft         electrons   0.0000000000000000     
 augmentation electrons   1284.9953543078657     
 soft         electrons   0.0000000000000000     
 augmentation electrons   1284.9953543078657     
 soft         electrons   0.0000000000000000     
 augmentation electrons   1284.9953543078657     
 soft         electrons   0.0000000000000000     
 augmentation electrons   1284.9953543078657     
 soft         electrons   0.0000000000000000     
 augmentation electrons   1284.9953543078657     
 soft         electrons   0.0000000000000000     
 augmentation electrons   1284.9953543078657     
 soft         electrons   0.0000000000000000     
 augmentation electrons   1284.9953543078657     
 soft         electrons   0.0000000000000000     
 augmentation electrons   1284.9953543078657     
 soft         electrons   0.0000000000000000     
 augmentation electrons   1284.9953543078657     
 soft         electrons   0.0000000000000000     
 augmentation electrons   1284.9953543078657     
 soft         electrons   0.0000000000000000     
 augmentation electrons   1284.9953543078657     
 soft         electrons   0.0000000000000000     
 augmentation electrons   1284.9953543078657     
 soft         electrons   0.0000000000000000     
 augmentation electrons   1284.9953543078657     
 soft         electrons   0.0000000000000000     
 augmentation electrons   1284.9953543078657     
 soft         electrons   0.0000000000000000     
 augmentation electrons   1284.9953543078657     
 soft         electrons   0.0000000000000000     
 augmentation electrons   1284.9953543078657     
 soft         electrons   0.0000000000000000     
 augmentation electrons   1284.9953543078657     
 soft         electrons   0.0000000000000000     
 augmentation electrons   1284.9953543078657     
 soft         electrons   0.0000000000000000     
 augmentation electrons   1284.9953543078657     
 soft         electrons   0.0000000000000000     
 soft         electrons   0.0000000000000000     
 total        electrons   1284.9953543078657     
 total        electrons   1284.9953543078657     
 total        electrons   1284.9953543078657     
 total        electrons   1284.9953543078657     
 total        electrons   1284.9953543078657     
 total        electrons   1284.9953543078657     
 total        electrons   1284.9953543078657     
 total        electrons   1284.9953543078657     
 total        electrons   1284.9953543078657     
 total        electrons   1284.9953543078657     
 total        electrons   1284.9953543078657     
 total        electrons   1284.9953543078657     
 total        electrons   1284.9953543078657     
 total        electrons   1284.9953543078657     
 total        electrons   1284.9953543078657     
 total        electrons   1284.9953543078657     
 total        electrons   1284.9953543078657     
 total        electrons   1284.9953543078657     
 total        electrons   1284.9953543078657     
 total        electrons   1284.9953543078657     
 total        electrons   1284.9953543078657     
 total        electrons   1284.9953543078657     
 total        electrons   1284.9953543078657     
 total        electrons   1284.9953543078657     
 total        electrons   1284.9953543078657     
 total        electrons   1284.9953543078657     
 total        electrons   1284.9953543078657     
 total        electrons   1284.9953543078657     
 total        electrons   1284.9953543078657     
 total        electrons   1284.9953543078657     
 total        electrons   1284.9953543078657     
 total        electrons   1284.9953543078657     
 total        electrons   1284.9953543078657     
 total        electrons   1284.9953543078657     
 total        electrons   1284.9953543078657     
 total        electrons   1284.9953543078657     
 total        electrons   1284.9953543078657     
 total        electrons   1284.9953543078657     
 total        electrons   1284.9953543078657     
 total        electrons   1284.9953543078657     
 total        electrons   1284.9953543078657     
 total        electrons   1284.9953543078657     
 total        electrons   1284.9953543078657     
 total        electrons   1284.9953543078657     
 total        electrons   1284.9953543078657     
 total        electrons   1284.9953543078657     
 total        electrons   1284.9953543078657     
 total        electrons   1284.9953543078657     
 total        electrons   1284.9953543078657     
 total        electrons   1284.9953543078657     
 total        electrons   1284.9953543078657     
 total        electrons   1284.9953543078657     
 total        electrons   1284.9953543078657     
 total        electrons   1284.9953543078657     
 total        electrons   1284.9953543078657     
 total        electrons   1284.9953543078657     
 total        electrons   1284.9953543078657     
 total        electrons   1284.9953543078657     
 total        electrons   1284.9953543078657     
 total        electrons   1284.9953543078657     
 total        electrons   1284.9953543078657     
 total        electrons   1284.9953543078657     
 total        electrons   1284.9953543078657     
 total        electrons   1284.9953543078657     
 total        electrons   1284.9953543078657     
 total        electrons   1284.9953543078657     
 total        electrons   1284.9953543078657     
 total        electrons   1284.9953543078657     
 total        electrons   1284.9953543078657     
 total        electrons   1284.9953543078657     
 total        electrons   1284.9953543078657     
 total        electrons   1284.9953543078657     
 entering main loop
       N       E                     dE             d eps       ncg     rms          rms(c)
DAV:   1     0.247201634689E+04    0.24720E+04   -0.10262E+05  8464   0.126E+03
DAV:   2    -0.194491643429E+03   -0.26665E+04   -0.24729E+04  9744   0.312E+02
DAV:   3    -0.622026026299E+03   -0.42753E+03   -0.40610E+03 11816   0.145E+02
DAV:   4    -0.658334594307E+03   -0.36309E+02   -0.34706E+02 13696   0.461E+01
DAV:   5    -0.660670449895E+03   -0.23359E+01   -0.22557E+01 14432   0.111E+01    0.146E+02
RMM:   6    -0.608944335312E+03    0.51726E+02   -0.11079E+03 13291   0.869E+01    0.693E+01
RMM:   7    -0.689752550483E+03   -0.80808E+02   -0.35390E+02 11218   0.484E+01    0.551E+01
RMM:   8    -0.613430403418E+03    0.76322E+02   -0.15807E+02 11560   0.272E+01    0.401E+01
RMM:   9    -0.572054446071E+03    0.41376E+02   -0.36608E+01 12188   0.151E+01    0.266E+01
RMM:  10    -0.560219622395E+03    0.11835E+02   -0.25040E+01  9972   0.158E+01    0.187E+01
RMM:  11    -0.559678961104E+03    0.54066E+00   -0.86252E+00 12060   0.634E+00    0.152E+01
RMM:  12    -0.559745670210E+03   -0.66709E-01   -0.14846E+00 13450   0.163E+00    0.141E+01
RMM:  13    -0.559480284627E+03    0.26539E+00   -0.13728E+00 11595   0.310E+00    0.115E+01
RMM:  14    -0.559555996592E+03   -0.75712E-01   -0.31343E+00 10689   0.525E+00    0.720E+00
RMM:  15    -0.558944693853E+03    0.61130E+00   -0.92361E-01  9719   0.322E+00    0.452E+00
RMM:  16    -0.558646940287E+03    0.29775E+00   -0.13365E+00 13074   0.192E+00    0.265E+00
RMM:  17    -0.558644052397E+03    0.28879E-02   -0.42176E-01 12777   0.134E+00    0.251E+00
RMM:  18    -0.558599902423E+03    0.44150E-01   -0.23014E-01 12700   0.107E+00    0.120E+00
RMM:  19    -0.558589136777E+03    0.10766E-01   -0.11114E-01 12686   0.613E-01    0.671E-01
RMM:  20    -0.558587582356E+03    0.15544E-02   -0.34601E-02 10946   0.468E-01    0.696E-01
RMM:  21    -0.558580614154E+03    0.69682E-02   -0.90530E-03 10351   0.278E-01    0.252E-01
RMM:  22    -0.558579850885E+03    0.76327E-03   -0.94761E-03 13137   0.140E-01    0.179E-01
RMM:  23    -0.558578496849E+03    0.13540E-02   -0.32645E-03 13024   0.911E-02    0.106E-01
RMM:  24    -0.558578175658E+03    0.32119E-03   -0.12694E-03 11118   0.830E-02    0.122E-01
RMM:  25    -0.558577979435E+03    0.19622E-03   -0.90607E-04 11679   0.706E-02    0.716E-02
RMM:  26    -0.558578447640E+03   -0.46821E-03   -0.96913E-04 12172   0.562E-02    0.425E-02
RMM:  27    -0.558578851875E+03   -0.40423E-03   -0.25688E-04 11371   0.325E-02    0.276E-02
RMM:  28    -0.558579294386E+03   -0.44251E-03   -0.29327E-04 11944   0.278E-02    0.299E-02
RMM:  29    -0.558579500588E+03   -0.20620E-03   -0.16465E-04 11566   0.208E-02    0.176E-02
RMM:  30    -0.558579577689E+03   -0.77101E-04   -0.60191E-05 10782   0.113E-02    0.143E-02
RMM:  31    -0.558579639754E+03   -0.62065E-04   -0.40095E-05  9170   0.889E-03    0.874E-03
RMM:  32    -0.558579746633E+03   -0.10688E-03   -0.21251E-05  9591   0.835E-03    0.915E-03
RMM:  33    -0.558579884028E+03   -0.13740E-03   -0.13295E-05  8340   0.968E-03    0.799E-03
RMM:  34    -0.558580072410E+03   -0.18838E-03   -0.17494E-05  8549   0.677E-03    0.694E-03
RMM:  35    -0.558580183095E+03   -0.11069E-03   -0.12741E-05  8468   0.691E-03    0.816E-03
RMM:  36    -0.558580217819E+03   -0.34724E-04   -0.46242E-06  7512   0.635E-03    0.338E-03
RMM:  37    -0.558580244539E+03   -0.26720E-04   -0.30929E-06  7534   0.295E-03    0.333E-03
RMM:  38    -0.558580268618E+03   -0.24079E-04   -0.33251E-06  7317   0.384E-03    0.274E-03
RMM:  39    -0.558580270200E+03   -0.15820E-05   -0.61711E-07  6104   0.287E-03    0.117E-03
RMM:  40    -0.558580273920E+03   -0.37199E-05   -0.49687E-07  5804   0.158E-03    0.106E-03
RMM:  41    -0.558580274808E+03   -0.88770E-06   -0.24131E-07  5039   0.156E-03
   1 F= -.55858027E+03 E0= -.55858031E+03  d E =0.110187E-03
 augmentation electrons   31.425944332342851     
 soft         electrons   251.70185797232207     
 augmentation electrons   31.425944332342851     
 soft         electrons   251.70185797232207     
 augmentation electrons   31.425944332342851     
 soft         electrons   251.70185797232207     
 augmentation electrons   31.425944332342851     
 soft         electrons   251.70185797232207     
 augmentation electrons   31.425944332342851     
 soft         electrons   251.70185797232207     
 augmentation electrons   31.425944332342851     
 soft         electrons   251.70185797232207     
 augmentation electrons   31.425944332342851     
 soft         electrons   251.70185797232207     
 augmentation electrons   31.425944332342851     
 soft         electrons   251.70185797232207     
 augmentation electrons   31.425944332342851     
 soft         electrons   251.70185797232207     
 augmentation electrons   31.425944332342851     
 soft         electrons   251.70185797232207     
 augmentation electrons   31.425944332342851     
 soft         electrons   251.70185797232207     
 augmentation electrons   31.425944332342851     
 soft         electrons   251.70185797232207     
 augmentation electrons   31.425944332342851     
 soft         electrons   251.70185797232207     
 augmentation electrons   31.425944332342851     
 soft         electrons   251.70185797232207     
 augmentation electrons   31.425944332342851     
 soft         electrons   251.70185797232207     
 augmentation electrons   31.425944332342851     
 soft         electrons   251.70185797232207     
 augmentation electrons   31.425944332342851     
 soft         electrons   251.70185797232207     
 augmentation electrons   31.425944332342851     
 soft         electrons   251.70185797232207     
 augmentation electrons   31.425944332342851     
 soft         electrons   251.70185797232207     
 augmentation electrons   31.425944332342851     
 soft         electrons   251.70185797232207     
 augmentation electrons   31.425944332342851     
 soft         electrons   251.70185797232207     
 augmentation electrons   31.425944332342851     
 soft         electrons   251.70185797232207     
 augmentation electrons   31.425944332342851     
 soft         electrons   251.70185797232207     
 augmentation electrons   31.425944332342851     
 soft         electrons   251.70185797232207     
 augmentation electrons   31.425944332342851     
 soft         electrons   251.70185797232207     
 augmentation electrons   31.425944332342851     
 soft         electrons   251.70185797232207     
 augmentation electrons   31.425944332342851     
 soft         electrons   251.70185797232207     
 augmentation electrons   31.425944332342851     
 soft         electrons   251.70185797232207     
 augmentation electrons   31.425944332342851     
 soft         electrons   251.70185797232207     
 augmentation electrons   31.425944332342851     
 soft         electrons   251.70185797232207     
 augmentation electrons   31.425944332342851     
 soft         electrons   251.70185797232207     
 augmentation electrons   31.425944332342851     
 soft         electrons   251.70185797232207     
 augmentation electrons   31.425944332342851     
 soft         electrons   251.70185797232207     
 augmentation electrons   31.425944332342851     
 soft         electrons   251.70185797232207     
 augmentation electrons   31.425944332342851     
 soft         electrons   251.70185797232207     
 augmentation electrons   31.425944332342851     
 soft         electrons   251.70185797232207     
 augmentation electrons   31.425944332342851     
 soft         electrons   251.70185797232207     
 augmentation electrons   31.425944332342851     
 soft         electrons   251.70185797232207     
 augmentation electrons   31.425944332342851     
 soft         electrons   251.70185797232207     
 augmentation electrons   31.425944332342851     
 soft         electrons   251.70185797232207     
 augmentation electrons   31.425944332342851     
 soft         electrons   251.70185797232207     
 augmentation electrons   31.425944332342851     
 soft         electrons   251.70185797232207     
 augmentation electrons   31.425944332342851     
 soft         electrons   251.70185797232207     
 augmentation electrons   31.425944332342851     
 soft         electrons   251.70185797232207     
 augmentation electrons   31.425944332342851     
 soft         electrons   251.70185797232207     
 augmentation electrons   31.425944332342851     
 soft         electrons   251.70185797232207     
 augmentation electrons   31.425944332342851     
 soft         electrons   251.70185797232207     
 augmentation electrons   31.425944332342851     
 soft         electrons   251.70185797232207     
 augmentation electrons   31.425944332342851     
 soft         electrons   251.70185797232207     
 augmentation electrons   31.425944332342851     
 soft         electrons   251.70185797232207     
 augmentation electrons   31.425944332342851     
 soft         electrons   251.70185797232207     
 augmentation electrons   31.425944332342851     
 soft         electrons   251.70185797232207     
 augmentation electrons   31.425944332342851     
 soft         electrons   251.70185797232207     
 augmentation electrons   31.425944332342851     
 soft         electrons   251.70185797232207     
 augmentation electrons   31.425944332342851     
 soft         electrons   251.70185797232207     
 augmentation electrons   31.425944332342851     
 soft         electrons   251.70185797232207     
 augmentation electrons   31.425944332342851     
 soft         electrons   251.70185797232207     
 augmentation electrons   31.425944332342851     
 soft         electrons   251.70185797232207     
 augmentation electrons   31.425944332342851     
 soft         electrons   251.70185797232207     
 augmentation electrons   31.425944332342851     
 soft         electrons   251.70185797232207     
 augmentation electrons   31.425944332342851     
 soft         electrons   251.70185797232207     
 augmentation electrons   31.425944332342851     
 soft         electrons   251.70185797232207     
 augmentation electrons   31.425944332342851     
 soft         electrons   251.70185797232207     
 augmentation electrons   31.425944332342851     
 soft         electrons   251.70185797232207     
 augmentation electrons   31.425944332342851     
 soft         electrons   251.70185797232207     
 augmentation electrons   31.425944332342851     
 soft         electrons   251.70185797232207     
 augmentation electrons   31.425944332342851     
 soft         electrons   251.70185797232207     
 augmentation electrons   31.425944332342851     
 soft         electrons   251.70185797232207     
 augmentation electrons   31.425944332342851     
 soft         electrons   251.70185797232207     
 augmentation electrons   31.425944332342851     
 soft         electrons   251.70185797232207     
 augmentation electrons   31.425944332342851     
 soft         electrons   251.70185797232207     
 augmentation electrons   31.425944332342851     
 soft         electrons   251.70185797232207     
 total        electrons   283.12780230466490     
 total        electrons   283.12780230466490     
 total        electrons   283.12780230466490     
 total        electrons   283.12780230466490     
 total        electrons   283.12780230466490     
 total        electrons   283.12780230466490     
 total        electrons   283.12780230466490     
 total        electrons   283.12780230466490     
 total        electrons   283.12780230466490     
 total        electrons   283.12780230466490     
 total        electrons   283.12780230466490     
 total        electrons   283.12780230466490     
 total        electrons   283.12780230466490     
 total        electrons   283.12780230466490     
 total        electrons   283.12780230466490     
 total        electrons   283.12780230466490     
 total        electrons   283.12780230466490     
 total        electrons   283.12780230466490     
 total        electrons   283.12780230466490     
 total        electrons   283.12780230466490     
 total        electrons   283.12780230466490     
 total        electrons   283.12780230466490     
 total        electrons   283.12780230466490     
 total        electrons   283.12780230466490     
 total        electrons   283.12780230466490     
 total        electrons   283.12780230466490     
 total        electrons   283.12780230466490     
 total        electrons   283.12780230466490     
 total        electrons   283.12780230466490     
 total        electrons   283.12780230466490     
 total        electrons   283.12780230466490     
 total        electrons   283.12780230466490     
 total        electrons   283.12780230466490     
 total        electrons   283.12780230466490     
 total        electrons   283.12780230466490     
 total        electrons   283.12780230466490     
 total        electrons   283.12780230466490     
 total        electrons   283.12780230466490     
 total        electrons   283.12780230466490     
 total        electrons   283.12780230466490     
 total        electrons   283.12780230466490     
 total        electrons   283.12780230466490     
 total        electrons   283.12780230466490     
 total        electrons   283.12780230466490     
 total        electrons   283.12780230466490     
 total        electrons   283.12780230466490     
 total        electrons   283.12780230466490     
 total        electrons   283.12780230466490     
 total        electrons   283.12780230466490     
 total        electrons   283.12780230466490     
 total        electrons   283.12780230466490     
 total        electrons   283.12780230466490     
 total        electrons   283.12780230466490     
 total        electrons   283.12780230466490     
 total        electrons   283.12780230466490     
 total        electrons   283.12780230466490     
 total        electrons   283.12780230466490     
 total        electrons   283.12780230466490     
 total        electrons   283.12780230466490     
 total        electrons   283.12780230466490     
 total        electrons   283.12780230466490     
 total        electrons   283.12780230466490     
 total        electrons   283.12780230466490     
 total        electrons   283.12780230466490     
 total        electrons   283.12780230466490     
 total        electrons   283.12780230466490     
 total        electrons   283.12780230466490     
 total        electrons   283.12780230466490     
 total        electrons   283.12780230466490     
 total        electrons   283.12780230466490     
 total        electrons   283.12780230466490     
 total        electrons   283.12780230466490     
Note: The following floating-point exceptions are signalling: IEEE_OVERFLOW_FLAG
Note: The following floating-point exceptions are signalling: IEEE_OVERFLOW_FLAG
Note: The following floating-point exceptions are signalling: IEEE_OVERFLOW_FLAG
Note: The following floating-point exceptions are signalling: IEEE_OVERFLOW_FLAG
Note: The following floating-point exceptions are signalling: IEEE_OVERFLOW_FLAG
Note: The following floating-point exceptions are signalling: IEEE_OVERFLOW_FLAG
Note: The following floating-point exceptions are signalling: IEEE_OVERFLOW_FLAG
Note: The following floating-point exceptions are signalling: IEEE_OVERFLOW_FLAG
Note: The following floating-point exceptions are signalling: IEEE_OVERFLOW_FLAG
Note: The following floating-point exceptions are signalling: IEEE_OVERFLOW_FLAG
Note: The following floating-point exceptions are signalling: IEEE_OVERFLOW_FLAG
Note: The following floating-point exceptions are signalling: IEEE_OVERFLOW_FLAG
Note: The following floating-point exceptions are signalling: IEEE_OVERFLOW_FLAG
Note: The following floating-point exceptions are signalling: IEEE_OVERFLOW_FLAG
Note: The following floating-point exceptions are signalling: IEEE_OVERFLOW_FLAG
Note: The following floating-point exceptions are signalling: IEEE_OVERFLOW_FLAG
Note: The following floating-point exceptions are signalling: IEEE_OVERFLOW_FLAG
Note: The following floating-point exceptions are signalling: IEEE_OVERFLOW_FLAG
Note: The following floating-point exceptions are signalling: IEEE_OVERFLOW_FLAG
Note: The following floating-point exceptions are signalling: IEEE_OVERFLOW_FLAG
Note: The following floating-point exceptions are signalling: IEEE_OVERFLOW_FLAG
Note: The following floating-point exceptions are signalling: IEEE_OVERFLOW_FLAG
Note: The following floating-point exceptions are signalling: IEEE_OVERFLOW_FLAG
Note: The following floating-point exceptions are signalling: IEEE_OVERFLOW_FLAG
Note: The following floating-point exceptions are signalling: IEEE_OVERFLOW_FLAG
Note: The following floating-point exceptions are signalling: IEEE_OVERFLOW_FLAG
Note: The following floating-point exceptions are signalling: IEEE_OVERFLOW_FLAG
Note: The following floating-point exceptions are signalling: IEEE_OVERFLOW_FLAG
Note: The following floating-point exceptions are signalling: IEEE_OVERFLOW_FLAG
Note: The following floating-point exceptions are signalling: IEEE_OVERFLOW_FLAG
Note: The following floating-point exceptions are signalling: IEEE_OVERFLOW_FLAG
Note: The following floating-point exceptions are signalling: IEEE_OVERFLOW_FLAG
Note: The following floating-point exceptions are signalling: IEEE_OVERFLOW_FLAG
Note: The following floating-point exceptions are signalling: IEEE_OVERFLOW_FLAG
Note: The following floating-point exceptions are signalling: IEEE_OVERFLOW_FLAG
Note: The following floating-point exceptions are signalling: IEEE_OVERFLOW_FLAG
Note: The following floating-point exceptions are signalling: IEEE_OVERFLOW_FLAG
Note: The following floating-point exceptions are signalling: IEEE_OVERFLOW_FLAG
Note: The following floating-point exceptions are signalling: IEEE_OVERFLOW_FLAG
Note: The following floating-point exceptions are signalling: IEEE_OVERFLOW_FLAG
Note: The following floating-point exceptions are signalling: IEEE_OVERFLOW_FLAG
Note: The following floating-point exceptions are signalling: IEEE_OVERFLOW_FLAG
Note: The following floating-point exceptions are signalling: IEEE_OVERFLOW_FLAG
Note: The following floating-point exceptions are signalling: IEEE_OVERFLOW_FLAG
Note: The following floating-point exceptions are signalling: IEEE_OVERFLOW_FLAG
Note: The following floating-point exceptions are signalling: IEEE_OVERFLOW_FLAG
Note: The following floating-point exceptions are signalling: IEEE_OVERFLOW_FLAG
Note: The following floating-point exceptions are signalling: IEEE_OVERFLOW_FLAG
Note: The following floating-point exceptions are signalling: IEEE_OVERFLOW_FLAG
Note: The following floating-point exceptions are signalling: IEEE_OVERFLOW_FLAG
Note: The following floating-point exceptions are signalling: IEEE_OVERFLOW_FLAG
Note: The following floating-point exceptions are signalling: IEEE_OVERFLOW_FLAG
Note: The following floating-point exceptions are signalling: IEEE_OVERFLOW_FLAG
Note: The following floating-point exceptions are signalling: IEEE_OVERFLOW_FLAG
Note: The following floating-point exceptions are signalling: IEEE_OVERFLOW_FLAG
Note: The following floating-point exceptions are signalling: IEEE_OVERFLOW_FLAG
Note: The following floating-point exceptions are signalling: IEEE_OVERFLOW_FLAG
Note: The following floating-point exceptions are signalling: IEEE_OVERFLOW_FLAG
Note: The following floating-point exceptions are signalling: IEEE_OVERFLOW_FLAG
Note: The following floating-point exceptions are signalling: IEEE_OVERFLOW_FLAG
Note: The following floating-point exceptions are signalling: IEEE_OVERFLOW_FLAG
Note: The following floating-point exceptions are signalling: IEEE_OVERFLOW_FLAG
Note: The following floating-point exceptions are signalling: IEEE_OVERFLOW_FLAG
Note: The following floating-point exceptions are signalling: IEEE_OVERFLOW_FLAG
Note: The following floating-point exceptions are signalling: IEEE_OVERFLOW_FLAG
Note: The following floating-point exceptions are signalling: IEEE_OVERFLOW_FLAG
Note: The following floating-point exceptions are signalling: IEEE_OVERFLOW_FLAG
Note: The following floating-point exceptions are signalling: IEEE_OVERFLOW_FLAG
Note: The following floating-point exceptions are signalling: IEEE_OVERFLOW_FLAG
Note: The following floating-point exceptions are signalling: IEEE_OVERFLOW_FLAG
Note: The following floating-point exceptions are signalling: IEEE_OVERFLOW_FLAG
Note: The following floating-point exceptions are signalling: IEEE_OVERFLOW_FLAG
