    3    3   60    1
  0.8144830E+01  0.3039000E-09  0.3039000E-09  0.3055000E-09  0.5000000E-15
   1.0000000000000000E-004
  CAR 
 Name                                    
     12    216     10

  0.3742002E-15  0.3742002E-15  0.3742002E-15  0.2962963E-03
    1       -5.427335   1.000000
    2        4.568033   1.000000
    3        4.917267   1.000000
    4        4.917270   1.000000
    5        6.180810   1.000000
    6       10.029009   0.089412
    7       10.029010   0.089407
    8       12.503972  -0.000000
    9       14.764415   0.000000
   10       14.764742   0.000000

  0.6666667E-01  0.3766815E-15  0.3742002E-15  0.1777778E-02
    1       -5.335003   1.000000
    2        4.637073   1.000000
    3        4.702695   1.000000
    4        4.961991   1.000000
    5        5.963308   1.000000
    6        9.984489   0.387497
    7       10.331204  -0.000002
    8       12.011903  -0.000000
    9       12.105804  -0.000000
   10       15.177369   0.000000

  0.1333333E+00  0.3754153E-15  0.3742002E-15  0.1777778E-02
    1       -5.062630   1.000000
    2        4.105275   1.000000
    3        4.839003   1.000000
    4        5.077265   1.000000
    5        5.472181   1.000000
    6        9.861230   1.032552
    7       11.042295  -0.000000
    8       11.148022  -0.000000
    9       11.489195  -0.000000
   10       15.811588   0.000000

  0.2000000E+00  0.3870416E-15  0.3742002E-15  0.1777778E-02
    1       -4.623357   1.000000
    2        3.297590   1.000000
    3        4.927791   1.000000
    4        5.035568   1.000000
    5        5.211964   1.000000
    6        9.686278   1.000213
    7       10.479480  -0.000000
    8       11.063943  -0.000000
    9       11.812484  -0.000000
   10       16.253122   0.000000

  0.2666667E+00  0.4120044E-15  0.3742002E-15  0.1777778E-02
    1       -4.036845   1.000000
    2        2.383858   1.000000
    3        4.440856   1.000000
    4        5.070765   1.000000
    5        5.307575   1.000000
    6        9.494260   1.000000
    7       10.312087  -0.000008
    8       10.923373  -0.000000
    9       12.274433  -0.000000
   10       16.536523   0.000000

  0.3333333E+00  0.4025434E-15  0.3742002E-15  0.1777778E-02
    1       -3.327883   1.000000
    2        1.426218   1.000000
    3        4.057168   1.000000
    4        4.891386   1.000000
    5        5.336944   1.000000
    6        9.318596   1.000000
    7       10.729869  -0.000000
    8       11.036040  -0.000000
    9       12.264349  -0.000000
   10       16.603971   0.000000

  0.4000000E+00  0.3732510E-15  0.3742002E-15  0.1777778E-02
    1       -2.529985   1.000000
    2        0.463924   1.000000
    3        3.795700   1.000000
    4        4.639041   1.000000
    5        5.320564   1.000000
    6        9.186271   1.000000
    7       11.271336  -0.000000
    8       11.513765  -0.000000
    9       12.044334  -0.000000
   10       16.569894   0.000000

  0.4666667E+00  0.3915456E-15  0.3742002E-15  0.1777778E-02
    1       -1.736411   1.000000
    2       -0.411508   1.000000
    3        3.663723   1.000000
    4        4.474016   1.000000
    5        5.298795   1.000000
    6        9.115562   1.000000
    7       11.453516  -0.000000
    8       11.881267  -0.000000
    9       12.210587  -0.000000
   10       16.404687   0.000000

  0.6666667E-01  0.6666667E-01  0.3742002E-15  0.1777778E-02
    1       -5.152599   1.000000
    2        4.308025   1.000000
    3        4.752677   1.000000
    4        5.050916   1.000000
    5        5.617855   1.000000
    6        9.875130   1.020374
    7       10.857754  -0.000000
    8       11.415100  -0.000000
    9       11.599990  -0.000000
   10       15.745661   0.000000

  0.1333333E+00  0.6666667E-01  0.3742002E-15  0.3555556E-02
    1       -4.796484   1.000000
    2        3.645286   1.000000
    3        4.820009   1.000000
    4        5.127777   1.000000
    5        5.273042   1.000000
    6        9.657614   1.000043
    7       10.660205  -0.000000
    8       11.183370  -0.000000
    9       11.666932  -0.000000
   10       16.304295   0.000000

  0.2000000E+00  0.6666667E-01  0.3742002E-15  0.3555556E-02
    1       -4.282666   1.000000
    2        2.822735   1.000000
    3        4.646185   1.000000
    4        4.732680   1.000000
    5        5.572975   1.000000
    6        9.377008   1.000000
    7       10.129407  -0.023832
    8       11.080415  -0.000000
    9       12.419206  -0.000000
   10       16.428160   0.000000

  0.2666667E+00  0.6666667E-01  0.3742002E-15  0.3555556E-02
    1       -3.632694   1.000000
    2        1.917549   1.000000
    3        4.243578   1.000000
    4        4.506273   1.000000
    5        5.782821   1.000000
    6        9.081893   1.000000
    7       10.056763  -0.003229
    8       11.291946  -0.000000
    9       12.764577   0.000000
   10       16.616069   0.000000

  0.3333333E+00  0.6666667E-01  0.3742002E-15  0.3555556E-02
    1       -2.873715   1.000000
    2        0.973515   1.000000
    3        3.948240   1.000000
    4        4.228503   1.000000
    5        5.835897   1.000000
    6        8.822458   1.000000
    7       10.437645  -0.000000
    8       11.690631  -0.000000
    9       12.706512   0.000000
   10       16.795830   0.000000

  0.4000000E+00  0.6666667E-01  0.3742002E-15  0.3555556E-02
    1       -2.050949   1.000000
    2        0.038343   1.000000
    3        3.769750   1.000000
    4        4.010937   1.000000
    5        5.808487   1.000000
    6        8.644602   1.000000
    7       10.984764  -0.000000
    8       12.065676  -0.000000
    9       12.555582  -0.000000
   10       16.745789   0.000000

  0.4666667E+00  0.6666667E-01  0.3742002E-15  0.1777778E-02
    1       -1.455159   1.000000
    2       -0.595314   1.000000
    3        3.710212   1.000000
    4        3.930067   1.000000
    5        5.789064   1.000000
    6        8.581286   1.000000
    7       11.255089  -0.000000
    8       12.215893  -0.000000
    9       12.490588  -0.000000
   10       16.699441   0.000000

  0.1333333E+00  0.1333333E+00  0.3742002E-15  0.1777778E-02
    1       -4.365116   1.000000
    2        3.035865   1.000000
    3        4.532884   1.000000
    4        4.737334   1.000000
    5        5.678412   1.000000
    6        9.247054   1.000000
    7       10.051062   0.009952
    8       11.167056  -0.000000
    9       12.579728  -0.000000
   10       16.362855   0.000000

  0.2000000E+00  0.1333333E+00  0.3742002E-15  0.3555556E-02
    1       -3.785415   1.000000
    2        2.314645   1.000000
    3        4.092130   1.000000
    4        4.395512   1.000000
    5        6.142620   1.000000
    6        8.743331   1.000000
    7        9.589113   1.000000
    8       11.481621  -0.000000
    9       13.443496   0.000000
   10       16.140569   0.000000

  0.2666667E+00  0.1333333E+00  0.3742002E-15  0.3555556E-02
    1       -3.079428   1.000000
    2        1.495479   1.000000
    3        3.639154   1.000000
    4        4.141468   1.000000
    5        6.481662   1.000000
    6        8.251813   1.000000
    7        9.548200   1.000000
    8       11.899347  -0.000000
    9       13.837705   0.000000
   10       16.583228   0.000000

  0.3333333E+00  0.1333333E+00  0.3742002E-15  0.3555556E-02
    1       -2.276808   1.000000
    2        0.603567   1.000000
    3        3.291186   1.000000
    4        3.981927   1.000000
    5        6.588054   1.000000
    6        7.863551   1.000000
    7        9.996755   0.290319
    8       12.109973  -0.000000
    9       13.831257   0.000000
   10       17.357196   0.000000

  0.4000000E+00  0.1333333E+00  0.3742002E-15  0.3555556E-02
    1       -1.451429   1.000000
    2       -0.273841   1.000000
    3        3.107480   1.000000
    4        3.907451   1.000000
    5        6.579747   1.000000
    6        7.649333   1.000000
    7       10.604817  -0.000000
    8       11.963354  -0.000000
    9       13.765352   0.000000
   10       17.518135   0.000000

  0.2000000E+00  0.2000000E+00  0.3742002E-15  0.1777778E-02
    1       -3.147798   1.000000
    2        1.776324   1.000000
    3        3.333005   1.000000
    4        4.235048   1.000000
    5        6.799190   1.000000
    6        8.008666   1.000000
    7        9.136875   1.000000
    8       11.973424  -0.000000
    9       14.583644   0.000000
   10       15.998326   0.000000

  0.2666667E+00  0.2000000E+00  0.3742002E-15  0.3555556E-02
    1       -2.391634   1.000000
    2        1.134370   1.000000
    3        2.675060   1.000000
    4        4.177121   1.000000
    5        7.322358   1.000000
    6        7.336224   1.000000
    7        9.084967   1.000000
    8       12.154488  -0.000000
    9       15.167643   0.000000
   10       16.528221   0.000000

  0.3333333E+00  0.2000000E+00  0.3742002E-15  0.3555556E-02
    1       -1.549859   1.000000
    2        0.332924   1.000000
    3        2.282966   1.000000
    4        4.190575   1.000000
    5        6.852643   1.000000
    6        7.465517   1.000000
    7        9.631664   1.000009
    8       11.815038  -0.000000
    9       15.174804   0.000000
   10       17.519313   0.000000

  0.4000000E+00  0.2000000E+00  0.3742002E-15  0.1777778E-02
    1       -0.837325   1.000000
    2       -0.378729   1.000000
    3        2.160900   1.000000
    4        4.209019   1.000000
    5        6.672599   1.000000
    6        7.461076   1.000000
    7       10.136556  -0.020550
    8       11.403758  -0.000000
    9       15.150389   0.000000
   10       17.986160   0.000000

  0.2666667E+00  0.2666667E+00  0.3742002E-15  0.1777778E-02
    1       -1.591056   1.000000
    2        0.776956   1.000000
    3        1.772600   1.000000
    4        4.352824   1.000000
    5        6.511464   1.000000
    6        8.207850   1.000000
    7        8.829753   1.000000
    8       11.772125  -0.000000
    9       16.433908   0.000000
   10       16.540972   0.000000

  0.3333333E+00  0.2666667E+00  0.3742002E-15  0.3555556E-02
    1       -0.715912   1.000000
    2        0.168156   1.000000
    3        1.267464   1.000000
    4        4.587380   1.000000
    5        5.936845   1.000000
    6        8.427167   1.000000
    7        9.389090   1.000000
    8       11.011022  -0.000000
    9       16.427188   0.000000
   10       17.477522   0.000000

  0.3333333E+00  0.3333333E+00  0.3742002E-15  0.5925926E-03
    1        0.068768   1.000000
    2        0.068770   1.000000
    3        0.464399   1.000000
    4        5.173029   1.000000
    5        5.173031   1.000000
    6        9.187095   1.000000
    7        9.187096   1.000000
    8       10.386599  -0.000000
    9       17.219832   0.000000
   10       17.219833   0.000000

  0.3742002E-15  0.3742002E-15  0.6666667E-01  0.5925926E-03
    1       -5.359067   1.000000
    2        4.297734   1.000000
    3        4.970948   1.000000
    4        4.970950   1.000000
    5        6.401801   1.000000
    6        9.818632   1.026556
    7        9.818633   1.026557
    8       12.352865  -0.000000
    9       12.352868  -0.000000
   10       15.718502   0.000000

  0.6666667E-01  0.3766815E-15  0.6666667E-01  0.3555556E-02
    1       -5.267809   1.000000
    2        4.357573   1.000000
    3        4.744105   1.000000
    4        5.010310   1.000000
    5        6.188035   1.000000
    6        9.749153   1.003700
    7       10.089424  -0.035182
    8       12.013454  -0.000000
    9       12.101567  -0.000000
   10       15.371089   0.000000

  0.1333333E+00  0.3754153E-15  0.6666667E-01  0.3555556E-02
    1       -4.998749   1.000000
    2        4.134552   1.000000
    3        4.490396   1.000000
    4        5.106802   1.000000
    5        5.753032   1.000000
    6        9.584710   1.000000
    7       10.476657  -0.000000
    8       11.613640  -0.000000
    9       11.670050  -0.000000
   10       15.805658   0.000000

  0.2000000E+00  0.3870416E-15  0.6666667E-01  0.3555556E-02
    1       -4.565127   1.000000
    2        3.295955   1.000000
    3        4.537518   1.000000
    4        5.204504   1.000000
    5        5.378932   1.000000
    6        9.431337   1.000000
    7       10.273315  -0.000082
    8       11.332835  -0.000000
    9       11.994542  -0.000000
   10       15.991863   0.000000

  0.2666667E+00  0.4120044E-15  0.6666667E-01  0.3555556E-02
    1       -3.986547   1.000000
    2        2.355287   1.000000
    3        4.356863   1.000000
    4        5.150573   1.000000
    5        5.245613   1.000000
    6        9.368850   1.000000
    7       10.198463  -0.002992
    8       11.159044  -0.000000
    9       12.373631  -0.000000
   10       16.162725   0.000000

  0.3333333E+00  0.4025434E-15  0.6666667E-01  0.3555556E-02
    1       -3.286903   1.000000
    2        1.380489   1.000000
    3        4.095400   1.000000
    4        4.907009   1.000000
    5        5.217311   1.000000
    6        9.374516   1.000000
    7       10.576851  -0.000000
    8       11.172447  -0.000000
    9       12.376804  -0.000000
   10       16.783869   0.000000

  0.4000000E+00  0.3732510E-15  0.6666667E-01  0.3555556E-02
    1       -2.495974   1.000000
    2        0.408783   1.000000
    3        3.891987   1.000000
    4        4.647122   1.000000
    5        5.157087   1.000000
    6        9.382044   1.000000
    7       11.121751  -0.000000
    8       11.325372  -0.000000
    9       12.384052  -0.000000
   10       16.585330   0.000000

  0.4666667E+00  0.3915456E-15  0.6666667E-01  0.3555556E-02
    1       -1.687479   1.000000
    2       -0.488953   1.000000
    3        3.786435   1.000000
    4        4.482985   1.000000
    5        5.112898   1.000000
    6        9.377808   1.000000
    7       11.329737  -0.000000
    8       11.469656  -0.000000
    9       12.726794   0.000000
   10       16.240921   0.000000

  0.6666667E-01  0.6666667E-01  0.6666667E-01  0.3555556E-02
    1       -5.087613   1.000000
    2        4.348815   1.000000
    3        4.454627   1.000000
    4        5.033051   1.000000
    5        5.901477   1.000000
    6        9.565837   1.000000
    7       10.517984  -0.000000
    8       11.562892  -0.000000
    9       11.834184  -0.000000
   10       15.837556   0.000000

  0.1333333E+00  0.6666667E-01  0.6666667E-01  0.7111111E-02
    1       -4.736004   1.000000
    2        3.668441   1.000000
    3        4.546600   1.000000
    4        4.930940   1.000000
    5        5.703747   1.000000
    6        9.251399   1.000000
    7       10.690482  -0.000000
    8       11.200847  -0.000000
    9       11.930843  -0.000000
   10       16.206326   0.000000

  0.2000000E+00  0.6666667E-01  0.6666667E-01  0.7111111E-02
    1       -4.229092   1.000000
    2        2.817025   1.000000
    3        4.440320   1.000000
    4        4.731165   1.000000
    5        5.740412   1.000000
    6        8.978767   1.000000
    7       10.413701  -0.000000
    8       11.138175  -0.000000
    9       12.493632  -0.000000
   10       16.121128   0.000000

  0.2666667E+00  0.6666667E-01  0.6666667E-01  0.7111111E-02
    1       -3.588092   1.000000
    2        1.886302   1.000000
    3        4.184345   1.000000
    4        4.510774   1.000000
    5        5.778264   1.000000
    6        8.888677   1.000000
    7       10.346175  -0.000001
    8       11.271019  -0.000000
    9       12.794035   0.000000
   10       16.376019   0.000000

  0.3333333E+00  0.6666667E-01  0.6666667E-01  0.7111111E-02
    1       -2.838429   1.000000
    2        0.926966   1.000000
    3        3.970497   1.000000
    4        4.246260   1.000000
    5        5.707534   1.000000
    6        8.911358   1.000000
    7       10.583532  -0.000000
    8       11.553788  -0.000000
    9       12.800971   0.000000
   10       16.782009   0.000000

  0.4000000E+00  0.6666667E-01  0.6666667E-01  0.7111111E-02
    1       -2.017684   1.000000
    2       -0.019529   1.000000
    3        3.853569   1.000000
    4        4.020977   1.000000
    5        5.607909   1.000000
    6        8.901503   1.000000
    7       11.024712  -0.000000
    8       11.729532  -0.000000
    9       12.866662   0.000000
   10       16.604240   0.000000

  0.4666667E+00  0.6666667E-01  0.6666667E-01  0.3555556E-02
    1       -1.383961   1.000000
    2       -0.695161   1.000000
    3        3.829723   1.000000
    4        3.922002   1.000000
    5        5.565451   1.000000
    6        8.886441   1.000000
    7       11.277333  -0.000000
    8       11.729422  -0.000000
    9       12.960813   0.000000
   10       16.458939   0.000000

  0.1333333E+00  0.1333333E+00  0.6666667E-01  0.3555556E-02
    1       -4.310474   1.000000
    2        3.056721   1.000000
    3        4.384222   1.000000
    4        4.580446   1.000000
    5        5.972735   1.000000
    6        8.695081   1.000000
    7       10.589089  -0.000000
    8       11.083790  -0.000000
    9       12.620854  -0.000000
   10       16.215017   0.000000

  0.2000000E+00  0.1333333E+00  0.6666667E-01  0.7111111E-02
    1       -3.739065   1.000000
    2        2.316407   1.000000
    3        3.925009   1.000000
    4        4.409650   1.000000
    5        6.307196   1.000000
    6        8.232527   1.000000
    7       10.163437  -0.010148
    8       11.443760  -0.000000
    9       13.384385   0.000000
   10       16.011032   0.000000

  0.2666667E+00  0.1333333E+00  0.6666667E-01  0.7111111E-02
    1       -3.043207   1.000000
    2        1.471026   1.000000
    3        3.532324   1.000000
    4        4.218463   1.000000
    5        6.420630   1.000000
    6        8.105091   1.000000
    7        9.956697   0.620188
    8       11.841143  -0.000000
    9       13.762970   0.000000
   10       16.381612   0.000000

  0.3333333E+00  0.1333333E+00  0.6666667E-01  0.7111111E-02
    1       -2.249708   1.000000
    2        0.562115   1.000000
    3        3.249076   1.000000
    4        4.075635   1.000000
    5        6.272878   1.000000
    6        8.171860   1.000000
    7       10.175722  -0.006857
    8       12.020042  -0.000000
    9       13.822433   0.000000
   10       16.903928   0.000000

  0.4000000E+00  0.1333333E+00  0.6666667E-01  0.7111111E-02
    1       -1.415003   1.000000
    2       -0.336108   1.000000
    3        3.099707   1.000000
    4        4.006562   1.000000
    5        6.132144   1.000000
    6        8.174890   1.000000
    7       10.667642  -0.000000
    8       11.871745  -0.000000
    9       13.813291   0.000000
   10       17.090929   0.000000

  0.2000000E+00  0.2000000E+00  0.6666667E-01  0.3555556E-02
    1       -3.111249   1.000000
    2        1.777547   1.000000
    3        3.203770   1.000000
    4        4.282028   1.000000
    5        6.966051   1.000000
    6        7.507656   1.000000
    7        9.709036   1.000665
    8       11.936280  -0.000000
    9       14.417448   0.000000
   10       15.899156   0.000000

  0.2666667E+00  0.2000000E+00  0.6666667E-01  0.7111111E-02
    1       -2.366741   1.000000
    2        1.116352   1.000000
    3        2.610779   1.000000
    4        4.234168   1.000000
    5        6.797596   1.000000
    6        7.693724   1.000000
    7        9.482518   1.000000
    8       12.116299  -0.000000
    9       15.018672   0.000000
   10       16.340544   0.000000

  0.3333333E+00  0.2000000E+00  0.6666667E-01  0.7111111E-02
    1       -1.534327   1.000000
    2        0.297633   1.000000
    3        2.269292   1.000000
    4        4.253274   1.000000
    5        6.346627   1.000000
    6        8.016447   1.000000
    7        9.794290   1.015703
    8       11.797687  -0.000000
    9       15.096492   0.000000
   10       17.162133   0.000000

  0.4000000E+00  0.2000000E+00  0.6666667E-01  0.3555556E-02
    1       -0.783494   1.000000
    2       -0.460014   1.000000
    3        2.163236   1.000000
    4        4.275504   1.000000
    5        6.174964   1.000000
    6        8.059282   1.000000
    7       10.219827  -0.001223
    8       11.411208  -0.000000
    9       15.090163   0.000000
   10       17.543981   0.000000

  0.2666667E+00  0.2666667E+00  0.6666667E-01  0.3555556E-02
    1       -1.580329   1.000000
    2        0.754106   1.000000
    3        1.750582   1.000000
    4        4.389152   1.000000
    5        6.267338   1.000000
    6        8.340382   1.000000
    7        9.187441   1.000000
    8       11.766766  -0.000000
    9       16.308911   0.000000
   10       16.344798   0.000000

  0.3333333E+00  0.2666667E+00  0.6666667E-01  0.7111111E-02
    1       -0.719342   1.000000
    2        0.136568   1.000000
    3        1.279904   1.000000
    4        4.607564   1.000000
    5        5.765181   1.000000
    6        8.693887   1.000000
    7        9.540730   1.000000
    8       11.038775  -0.000000
    9       16.328032   0.000000
   10       17.282716   0.000000

  0.3333333E+00  0.3333333E+00  0.6666667E-01  0.1185185E-02
    1        0.016534   1.000000
    2        0.016536   1.000000
    3        0.549604   1.000000
    4        5.125735   1.000000
    5        5.125737   1.000000
    6        9.373125   1.000000
    7        9.373126   1.000000
    8       10.416471  -0.000000
    9       17.100814   0.000000
   10       17.100815   0.000000

  0.3742002E-15  0.3742002E-15  0.1333333E+00  0.5925926E-03
    1       -5.158462   1.000000
    2        3.695996   1.000000
    3        5.131576   1.000000
    4        5.131578   1.000000
    5        6.870661   1.000000
    6        9.324670   1.000000
    7        9.324672   1.000000
    8       11.928997  -0.000000
    9       11.929000  -0.000000
   10       15.626026   0.000000

  0.6666667E-01  0.3766815E-15  0.1333333E+00  0.3555556E-02
    1       -5.070592   1.000000
    2        3.748397   1.000000
    3        4.887109   1.000000
    4        5.153298   1.000000
    5        6.624505   1.000000
    6        9.226095   1.000000
    7        9.580195   1.000000
    8       11.822152  -0.000000
    9       11.924660  -0.000000
   10       15.926238   0.000000

  0.1333333E+00  0.3754153E-15  0.1333333E+00  0.3555556E-02
    1       -4.811877   1.000000
    2        3.840993   1.000000
    3        4.268894   1.000000
    4        5.189671   1.000000
    5        6.166953   1.000000
    6        9.050350   1.000000
    7        9.871120   1.025067
    8       11.852298  -0.000000
    9       11.878642  -0.000000
   10       15.937804   0.000000

  0.2000000E+00  0.3870416E-15  0.1333333E+00  0.3555556E-02
    1       -4.396054   1.000000
    2        3.250064   1.000000
    3        4.110049   1.000000
    4        5.174833   1.000000
    5        5.723345   1.000000
    6        9.003429   1.000000
    7        9.845238   1.035293
    8       11.773391  -0.000000
    9       12.305002  -0.000000
   10       15.691640   0.000000

  0.2666667E+00  0.4120044E-15  0.1333333E+00  0.3555556E-02
    1       -3.842657   1.000000
    2        2.275349   1.000000
    3        4.179590   1.000000
    4        5.070753   1.000000
    5        5.318220   1.000000
    6        9.180559   1.000000
    7        9.899473   0.965298
    8       11.644336  -0.000000
    9       12.666574  -0.000000
   10       15.687032   0.000000

  0.3333333E+00  0.4025434E-15  0.1333333E+00  0.3555556E-02
    1       -3.173614   1.000000
    2        1.276252   1.000000
    3        4.175282   1.000000
    4        4.911628   1.000000
    5        4.950654   1.000000
    6        9.514662   1.000000
    7       10.217229  -0.001372
    8       11.542549  -0.000000
    9       12.700760  -0.000000
   10       16.139168   0.000000

  0.4000000E+00  0.3732510E-15  0.1333333E+00  0.3555556E-02
    1       -2.410819   1.000000
    2        0.295460   1.000000
    3        4.135773   1.000000
    4        4.656339   1.000000
    5        4.763843   1.000000
    6        9.845429   1.035311
    7       10.567209  -0.000000
    8       11.506078  -0.000000
    9       12.854072   0.000000
   10       16.272107   0.000000

  0.4666667E+00  0.3915456E-15  0.1333333E+00  0.3555556E-02
    1       -1.581230   1.000000
    2       -0.641614   1.000000
    3        4.106986   1.000000
    4        4.490476   1.000000
    5        4.677988   1.000000
    6       10.033702   0.068490
    7       10.700768  -0.000000
    8       11.520488  -0.000000
    9       13.284208   0.000000
   10       15.859888   0.000000

  0.6666667E-01  0.6666667E-01  0.1333333E+00  0.3555556E-02
    1       -4.897270   1.000000
    2        3.834863   1.000000
    3        4.468639   1.000000
    4        5.117467   1.000000
    5        6.353848   1.000000
    6        8.957991   1.000000
    7        9.979939   0.425205
    8       11.642126  -0.000000
    9       12.007176  -0.000000
   10       16.385256   0.000000

  0.1333333E+00  0.6666667E-01  0.1333333E+00  0.7111111E-02
    1       -4.559824   1.000000
    2        3.686720   1.000000
    3        4.003959   1.000000
    4        4.944913   1.000000
    5        6.175137   1.000000
    6        8.598762   1.000000
    7       10.287476  -0.000036
    8       11.553773  -0.000000
    9       12.255176  -0.000000
   10       16.081237   0.000000

  0.2000000E+00  0.6666667E-01  0.1333333E+00  0.7111111E-02
    1       -4.074671   1.000000
    2        2.785518   1.000000
    3        4.064480   1.000000
    4        4.713184   1.000000
    5        6.013967   1.000000
    6        8.468402   1.000000
    7       10.379396  -0.000000
    8       11.527280  -0.000000
    9       12.702855   0.000000
   10       15.753348   0.000000

  0.2666667E+00  0.6666667E-01  0.1333333E+00  0.7111111E-02
    1       -3.462415   1.000000
    2        1.807741   1.000000
    3        4.047012   1.000000
    4        4.492442   1.000000
    5        5.738008   1.000000
    6        8.690675   1.000000
    7       10.574589  -0.000000
    8       11.455593  -0.000000
    9       12.957583   0.000000
   10       15.896700   0.000000

  0.3333333E+00  0.6666667E-01  0.1333333E+00  0.7111111E-02
    1       -2.744771   1.000000
    2        0.825756   1.000000
    3        3.975817   1.000000
    4        4.303825   1.000000
    5        5.425695   1.000000
    6        9.110754   1.000000
    7       10.850098  -0.000000
    8       11.411728  -0.000000
    9       13.041836   0.000000
   10       16.286038   0.000000

  0.4000000E+00  0.6666667E-01  0.1333333E+00  0.7111111E-02
    1       -1.943570   1.000000
    2       -0.132659   1.000000
    3        3.904187   1.000000
    4        4.181089   1.000000
    5        5.193699   1.000000
    6        9.447835   1.000000
    7       11.095769  -0.000000
    8       11.387760  -0.000000
    9       13.276432   0.000000
   10       16.192023   0.000000

  0.4666667E+00  0.6666667E-01  0.1333333E+00  0.3555556E-02
    1       -1.175848   1.000000
    2       -0.952373   1.000000
    3        3.872699   1.000000
    4        4.142273   1.000000
    5        5.108994   1.000000
    6        9.557883   1.000000
    7       11.239932  -0.000000
    8       11.342037  -0.000000
    9       13.466127   0.000000
   10       15.989866   0.000000

  0.1333333E+00  0.1333333E+00  0.1333333E+00  0.3555556E-02
    1       -4.152632   1.000000
    2        3.116405   1.000000
    3        3.853637   1.000000
    4        4.566968   1.000000
    5        6.493572   1.000000
    6        7.931454   1.000000
    7       10.839074  -0.000000
    8       11.253677  -0.000000
    9       12.756385   0.000000
   10       16.002149   0.000000

  0.2000000E+00  0.1333333E+00  0.1333333E+00  0.7111111E-02
    1       -3.607427   1.000000
    2        2.317515   1.000000
    3        3.589150   1.000000
    4        4.409796   1.000000
    5        6.587593   1.000000
    6        7.668015   1.000000
    7       10.927144  -0.000000
    8       11.344166  -0.000000
    9       13.331256   0.000000
   10       15.749888   0.000000

  0.2666667E+00  0.1333333E+00  0.1333333E+00  0.7111111E-02
    1       -2.944369   1.000000
    2        1.411501   1.000000
    3        3.342249   1.000000
    4        4.325573   1.000000
    5        6.169142   1.000000
    6        8.121418   1.000000
    7       10.732901  -0.000000
    8       11.670172  -0.000000
    9       13.678613   0.000000
   10       15.977210   0.000000

  0.3333333E+00  0.1333333E+00  0.1333333E+00  0.7111111E-02
    1       -2.184602   1.000000
    2        0.475324   1.000000
    3        3.165656   1.000000
    4        4.273562   1.000000
    5        5.740977   1.000000
    6        8.697617   1.000000
    7       10.681391  -0.000000
    8       11.791956  -0.000000
    9       13.843511   0.000000
   10       16.357466   0.000000

  0.4000000E+00  0.1333333E+00  0.1333333E+00  0.7111111E-02
    1       -1.350314   1.000000
    2       -0.449900   1.000000
    3        3.072521   1.000000
    4        4.259009   1.000000
    5        5.490809   1.000000
    6        9.025448   1.000000
    7       10.861759  -0.000000
    8       11.672667  -0.000000
    9       13.936140   0.000000
   10       16.483863   0.000000

  0.2000000E+00  0.2000000E+00  0.1333333E+00  0.3555556E-02
    1       -3.010669   1.000000
    2        1.779236   1.000000
    3        2.940031   1.000000
    4        4.349751   1.000000
    5        6.778650   1.000000
    6        7.407365   1.000000
    7       10.626669  -0.000000
    8       11.808949  -0.000000
    9       14.131292   0.000000
   10       15.677978   0.000000

  0.2666667E+00  0.2000000E+00  0.1333333E+00  0.7111111E-02
    1       -2.304182   1.000000
    2        1.069940   1.000000
    3        2.482684   1.000000
    4        4.351038   1.000000
    5        6.183693   1.000000
    6        8.122376   1.000000
    7       10.318378  -0.000005
    8       12.002031  -0.000000
    9       14.726287   0.000000
   10       15.992955   0.000000
