   71   71    1    1
  0.2199523E+02  0.1053953E-08  0.6141200E-09  0.2412750E-08  0.5000000E-15
   1.0000000000000000E-004
  CAR 
 Name                                    
    266     23    176

  0.3742002E-15  0.3742002E-15  0.1262379E-14  0.2222222E-01
    1      -13.914076   1.000000
    2      -12.924137   1.000000
    3      -12.774555   1.000000
    4      -12.384736   1.000000
    5      -11.805559   1.000000
    6      -11.633434   1.000000
    7      -11.581776   1.000000
    8      -11.559698   1.000000
    9      -11.402894   1.000000
   10      -11.178519   1.000000
   11      -11.048839   1.000000
   12      -10.975859   1.000000
   13      -10.793505   1.000000
   14      -10.402423   1.000000
   15      -10.284736   1.000000
   16      -10.150393   1.000000
   17      -10.059930   1.000000
   18       -9.989138   1.000000
   19       -9.808172   1.000000
   20       -9.614798   1.000000
   21       -9.573236   1.000000
   22       -9.482321   1.000000
   23       -9.231374   1.000000
   24       -8.937044   1.000000
   25       -8.868503   1.000000
   26       -8.691473   1.000000
   27       -8.552173   1.000000
   28       -8.355888   1.000000
   29       -8.286716   1.000000
   30       -8.077232   1.000000
   31       -7.981489   1.000000
   32       -7.773837   1.000000
   33       -7.474589   1.000000
   34       -7.322540   1.000000
   35       -7.237704   1.000000
   36       -7.110922   1.000000
   37       -7.015646   1.000000
   38       -6.860311   1.000000
   39       -6.787932   1.000000
   40       -6.723906   1.000000
   41       -6.655707   1.000000
   42       -6.565635   1.000000
   43       -6.470591   1.000000
   44       -6.387019   1.000000
   45       -6.307761   1.000000
   46       -6.226053   1.000000
   47       -6.105952   1.000000
   48       -5.975557   1.000000
   49       -5.945123   1.000000
   50       -5.887831   1.000000
   51       -5.728010   1.000000
   52       -5.651877   1.000000
   53       -5.645257   1.000000
   54       -5.579247   1.000000
   55       -5.537213   1.000000
   56       -5.400138   1.000000
   57       -5.346460   1.000000
   58       -5.299523   1.000000
   59       -5.126402   1.000000
   60       -5.119595   1.000000
   61       -4.983131   1.000000
   62       -4.953783   1.000000
   63       -4.807892   1.000000
   64       -4.652759   1.000000
   65       -4.611544   1.000000
   66       -4.570772   1.000000
   67       -4.510836   1.000000
   68       -4.495740   1.000000
   69       -4.433285   1.000000
   70       -4.392818   1.000000
   71       -4.344671   1.000000
   72       -4.227991   1.000000
   73       -4.182794   1.000000
   74       -4.145341   1.000000
   75       -4.101986   1.000000
   76       -3.997882   1.000000
   77       -3.929883   1.000000
   78       -3.897084   1.000000
   79       -3.744892   1.000000
   80       -3.679506   1.000000
   81       -3.660782   1.000000
   82       -3.579862   1.000000
   83       -3.536691   1.000000
   84       -3.394870   1.000000
   85       -3.300281   1.000000
   86       -3.288270   1.000000
   87       -3.272008   1.000000
   88       -3.226420   1.000000
   89       -3.161614   1.000000
   90       -3.123902   1.000000
   91       -3.066454   1.000000
   92       -3.013624   1.000000
   93       -2.899783   1.000000
   94       -2.844559   1.000000
   95       -2.786442   1.000000
   96       -2.668554   1.000000
   97       -2.626950   1.000000
   98       -2.591201   1.000000
   99       -2.497238   1.000000
  100       -2.392676   1.000000
  101       -2.359272   1.000000
  102       -2.277240   1.000000
  103       -2.255867   1.000000
  104       -2.244597   1.000000
  105       -2.099534   1.000000
  106       -2.088821   1.000000
  107       -2.047495   1.000000
  108       -2.026619   1.000000
  109       -1.932947   1.000000
  110       -1.927978   1.000000
  111       -1.745502   1.000000
  112       -1.711240   1.000000
  113       -1.675075   1.000000
  114       -1.625050   1.000000
  115       -1.382253   1.000000
  116       -1.248405   1.000000
  117       -1.220043   1.000000
  118       -1.141046   1.000000
  119       -1.070045   1.000000
  120       -0.971567   1.000000
  121       -0.869571   1.000000
  122       -0.840171   1.000000
  123       -0.595779   1.000000
  124       -0.475024   1.000026
  125       -0.407257   1.000182
  126       -0.273253   1.003866
  127       -0.237121   1.007325
  128       -0.125495   1.029024
  129       -0.106320   1.032720
  130       -0.016358   1.015175
  131        0.013053   0.983624
  132        0.057863   0.897241
  133        0.125632   0.675810
  134        0.219464   0.290914
  135        0.250590   0.182127
  136        0.281312   0.096122
  137        0.317505   0.024978
  138        0.375566  -0.028525
  139        0.428785  -0.034616
  140        0.480766  -0.024794
  141        0.615590  -0.003458
  142        0.719919  -0.000338
  143        0.741185  -0.000195
  144        0.791706  -0.000048
  145        0.855083  -0.000007
  146        0.976883  -0.000000
  147        1.052630  -0.000000
  148        1.116135  -0.000000
  149        1.163561  -0.000000
  150        1.178384  -0.000000
  151        1.239445  -0.000000
  152        1.248146  -0.000000
  153        1.286644  -0.000000
  154        1.327600  -0.000000
  155        1.361115  -0.000000
  156        1.397043  -0.000000
  157        1.422544  -0.000000
  158        1.450418  -0.000000
  159        1.499973  -0.000000
  160        1.505513  -0.000000
  161        1.535077  -0.000000
  162        1.585686  -0.000000
  163        1.643403  -0.000000
  164        1.697733  -0.000000
  165        1.735262  -0.000000
  166        1.762514  -0.000000
  167        1.811165  -0.000000
  168        1.850542  -0.000000
  169        1.960744  -0.000000
  170        2.040642  -0.000000
  171        2.103559  -0.000000
  172        2.179703  -0.000000
  173        2.502299  -0.000000
  174        2.599692  -0.000000
  175        2.656670  -0.000000
  176        2.851277  -0.000000

  0.2000000E+00  0.3742002E-15  0.1262379E-14  0.4444444E-01
    1      -13.873230   1.000000
    2      -13.166951   1.000000
    3      -12.656203   1.000000
    4      -12.146218   1.000000
    5      -11.945910   1.000000
    6      -11.795022   1.000000
    7      -11.621211   1.000000
    8      -11.373636   1.000000
    9      -11.225893   1.000000
   10      -11.187003   1.000000
   11      -11.016701   1.000000
   12      -10.888367   1.000000
   13      -10.784553   1.000000
   14      -10.582722   1.000000
   15      -10.454011   1.000000
   16      -10.295699   1.000000
   17      -10.150600   1.000000
   18      -10.029028   1.000000
   19       -9.717297   1.000000
   20       -9.665083   1.000000
   21       -9.420826   1.000000
   22       -9.376134   1.000000
   23       -9.248147   1.000000
   24       -9.001577   1.000000
   25       -8.894553   1.000000
   26       -8.742247   1.000000
   27       -8.345297   1.000000
   28       -8.228398   1.000000
   29       -8.076638   1.000000
   30       -8.026267   1.000000
   31       -7.992320   1.000000
   32       -7.922042   1.000000
   33       -7.447385   1.000000
   34       -7.406443   1.000000
   35       -7.309385   1.000000
   36       -7.134696   1.000000
   37       -7.102257   1.000000
   38       -7.039032   1.000000
   39       -6.840332   1.000000
   40       -6.706549   1.000000
   41       -6.668795   1.000000
   42       -6.550696   1.000000
   43       -6.506442   1.000000
   44       -6.421114   1.000000
   45       -6.336595   1.000000
   46       -6.185433   1.000000
   47       -6.025555   1.000000
   48       -5.942945   1.000000
   49       -5.879937   1.000000
   50       -5.822525   1.000000
   51       -5.779805   1.000000
   52       -5.719639   1.000000
   53       -5.633020   1.000000
   54       -5.532836   1.000000
   55       -5.424511   1.000000
   56       -5.373231   1.000000
   57       -5.303966   1.000000
   58       -5.252546   1.000000
   59       -5.188385   1.000000
   60       -5.100898   1.000000
   61       -5.021194   1.000000
   62       -4.936066   1.000000
   63       -4.788478   1.000000
   64       -4.716437   1.000000
   65       -4.637677   1.000000
   66       -4.612134   1.000000
   67       -4.516759   1.000000
   68       -4.457130   1.000000
   69       -4.390335   1.000000
   70       -4.365031   1.000000
   71       -4.321317   1.000000
   72       -4.264746   1.000000
   73       -4.180272   1.000000
   74       -4.141004   1.000000
   75       -4.077988   1.000000
   76       -3.990311   1.000000
   77       -3.914172   1.000000
   78       -3.841068   1.000000
   79       -3.790890   1.000000
   80       -3.758199   1.000000
   81       -3.680167   1.000000
   82       -3.597913   1.000000
   83       -3.470043   1.000000
   84       -3.400418   1.000000
   85       -3.370329   1.000000
   86       -3.337589   1.000000
   87       -3.266884   1.000000
   88       -3.245223   1.000000
   89       -3.199687   1.000000
   90       -3.084472   1.000000
   91       -3.064074   1.000000
   92       -2.973434   1.000000
   93       -2.943977   1.000000
   94       -2.921471   1.000000
   95       -2.799855   1.000000
   96       -2.678811   1.000000
   97       -2.621899   1.000000
   98       -2.511662   1.000000
   99       -2.473570   1.000000
  100       -2.444557   1.000000
  101       -2.384322   1.000000
  102       -2.244420   1.000000
  103       -2.216621   1.000000
  104       -2.188821   1.000000
  105       -2.093811   1.000000
  106       -2.074676   1.000000
  107       -2.000321   1.000000
  108       -1.966101   1.000000
  109       -1.935793   1.000000
  110       -1.890544   1.000000
  111       -1.781257   1.000000
  112       -1.699386   1.000000
  113       -1.617599   1.000000
  114       -1.578949   1.000000
  115       -1.397374   1.000000
  116       -1.283660   1.000000
  117       -1.238271   1.000000
  118       -1.152581   1.000000
  119       -1.094638   1.000000
  120       -1.011880   1.000000
  121       -0.915737   1.000000
  122       -0.849989   1.000000
  123       -0.649037   1.000000
  124       -0.555498   1.000002
  125       -0.381545   1.000355
  126       -0.298323   1.002365
  127       -0.263737   1.004612
  128       -0.191790   1.014427
  129       -0.171588   1.018586
  130       -0.072286   1.035380
  131       -0.033090   1.025801
  132        0.057480   0.898190
  133        0.101401   0.766051
  134        0.193269   0.394986
  135        0.285202   0.086906
  136        0.326892   0.011690
  137        0.333358   0.003686
  138        0.429067  -0.034587
  139        0.476114  -0.025866
  140        0.541996  -0.011930
  141        0.596262  -0.004953
  142        0.699962  -0.000554
  143        0.775874  -0.000075
  144        0.845672  -0.000009
  145        0.933720  -0.000000
  146        1.005864  -0.000000
  147        1.044814  -0.000000
  148        1.094679  -0.000000
  149        1.133895  -0.000000
  150        1.177058  -0.000000
  151        1.228237  -0.000000
  152        1.266344  -0.000000
  153        1.315362  -0.000000
  154        1.370663  -0.000000
  155        1.376392  -0.000000
  156        1.425563  -0.000000
  157        1.443702  -0.000000
  158        1.472069  -0.000000
  159        1.504749  -0.000000
  160        1.517027  -0.000000
  161        1.578582  -0.000000
  162        1.617212  -0.000000
  163        1.647217  -0.000000
  164        1.675224  -0.000000
  165        1.712388  -0.000000
  166        1.783875  -0.000000
  167        1.813723  -0.000000
  168        1.819116  -0.000000
  169        1.882782  -0.000000
  170        1.990644  -0.000000
  171        2.083492  -0.000000
  172        2.181160  -0.000000
  173        2.229655  -0.000000
  174        2.669318  -0.000000
  175        2.712133  -0.000000
  176        2.993247  -0.000000

  0.4000000E+00  0.3742002E-15  0.1262379E-14  0.4444444E-01
    1      -13.769999   1.000000
    2      -13.423585   1.000000
    3      -12.537228   1.000000
    4      -12.206249   1.000000
    5      -11.776562   1.000000
    6      -11.677390   1.000000
    7      -11.660819   1.000000
    8      -11.334485   1.000000
    9      -11.201931   1.000000
   10      -11.124455   1.000000
   11      -10.985586   1.000000
   12      -10.944119   1.000000
   13      -10.772746   1.000000
   14      -10.652209   1.000000
   15      -10.571570   1.000000
   16      -10.480617   1.000000
   17      -10.159385   1.000000
   18       -9.986837   1.000000
   19       -9.981525   1.000000
   20       -9.784516   1.000000
   21       -9.370899   1.000000
   22       -9.312769   1.000000
   23       -9.104071   1.000000
   24       -8.944647   1.000000
   25       -8.820943   1.000000
   26       -8.664600   1.000000
   27       -8.341868   1.000000
   28       -8.095026   1.000000
   29       -7.964928   1.000000
   30       -7.827284   1.000000
   31       -7.787086   1.000000
   32       -7.735665   1.000000
   33       -7.662796   1.000000
   34       -7.592517   1.000000
   35       -7.425424   1.000000
   36       -7.351764   1.000000
   37       -7.266676   1.000000
   38       -7.152775   1.000000
   39       -7.058325   1.000000
   40       -6.796850   1.000000
   41       -6.689090   1.000000
   42       -6.522696   1.000000
   43       -6.432300   1.000000
   44       -6.369221   1.000000
   45       -6.228267   1.000000
   46       -6.070372   1.000000
   47       -5.995580   1.000000
   48       -5.961831   1.000000
   49       -5.939507   1.000000
   50       -5.843686   1.000000
   51       -5.779135   1.000000
   52       -5.626679   1.000000
   53       -5.550035   1.000000
   54       -5.539017   1.000000
   55       -5.434938   1.000000
   56       -5.380978   1.000000
   57       -5.288559   1.000000
   58       -5.211314   1.000000
   59       -5.139312   1.000000
   60       -5.072502   1.000000
   61       -5.005238   1.000000
   62       -4.912870   1.000000
   63       -4.809742   1.000000
   64       -4.681548   1.000000
   65       -4.665575   1.000000
   66       -4.594542   1.000000
   67       -4.565883   1.000000
   68       -4.473621   1.000000
   69       -4.415176   1.000000
   70       -4.357076   1.000000
   71       -4.287899   1.000000
   72       -4.233134   1.000000
   73       -4.211472   1.000000
   74       -4.061717   1.000000
   75       -4.030298   1.000000
   76       -3.941425   1.000000
   77       -3.903916   1.000000
   78       -3.868004   1.000000
   79       -3.836036   1.000000
   80       -3.809138   1.000000
   81       -3.680198   1.000000
   82       -3.607454   1.000000
   83       -3.511714   1.000000
   84       -3.483319   1.000000
   85       -3.418383   1.000000
   86       -3.395698   1.000000
   87       -3.302501   1.000000
   88       -3.203139   1.000000
   89       -3.168035   1.000000
   90       -3.092846   1.000000
   91       -3.071653   1.000000
   92       -3.048484   1.000000
   93       -2.910967   1.000000
   94       -2.891772   1.000000
   95       -2.843512   1.000000
   96       -2.802017   1.000000
   97       -2.623198   1.000000
   98       -2.547939   1.000000
   99       -2.492824   1.000000
  100       -2.444210   1.000000
  101       -2.289553   1.000000
  102       -2.212715   1.000000
  103       -2.181998   1.000000
  104       -2.094247   1.000000
  105       -2.051619   1.000000
  106       -1.970959   1.000000
  107       -1.944036   1.000000
  108       -1.911177   1.000000
  109       -1.869977   1.000000
  110       -1.822674   1.000000
  111       -1.737349   1.000000
  112       -1.660080   1.000000
  113       -1.606642   1.000000
  114       -1.536310   1.000000
  115       -1.466376   1.000000
  116       -1.386899   1.000000
  117       -1.303803   1.000000
  118       -1.230044   1.000000
  119       -1.052748   1.000000
  120       -1.027311   1.000000
  121       -0.961172   1.000000
  122       -0.873336   1.000000
  123       -0.740130   1.000000
  124       -0.707497   1.000000
  125       -0.435611   1.000084
  126       -0.323494   1.001390
  127       -0.295280   1.002516
  128       -0.281478   1.003305
  129       -0.245483   1.006365
  130       -0.155426   1.022222
  131       -0.088352   1.034976
  132        0.023019   0.968648
  133        0.169475   0.494752
  134        0.227678   0.260369
  135        0.276771   0.107366
  136        0.325687   0.013283
  137        0.379036  -0.029862
  138        0.451993  -0.031065
  139        0.536215  -0.012945
  140        0.568650  -0.007941
  141        0.680672  -0.000873
  142        0.728674  -0.000270
  143        0.825575  -0.000017
  144        0.883615  -0.000003
  145        0.921987  -0.000001
  146        0.965768  -0.000000
  147        1.101552  -0.000000
  148        1.139490  -0.000000
  149        1.202078  -0.000000
  150        1.216898  -0.000000
  151        1.252069  -0.000000
  152        1.280018  -0.000000
  153        1.314463  -0.000000
  154        1.359843  -0.000000
  155        1.402842  -0.000000
  156        1.422596  -0.000000
  157        1.455672  -0.000000
  158        1.497314  -0.000000
  159        1.533232  -0.000000
  160        1.564113  -0.000000
  161        1.646020  -0.000000
  162        1.665864  -0.000000
  163        1.699790  -0.000000
  164        1.719781  -0.000000
  165        1.735248  -0.000000
  166        1.780110  -0.000000
  167        1.796254  -0.000000
  168        1.904528  -0.000000
  169        1.949495  -0.000000
  170        2.000328  -0.000000
  171        2.065922  -0.000000
  172        2.148123  -0.000000
  173        2.223751  -0.000000
  174        2.379938  -0.000000
  175        2.508053  -0.000000
  176        2.670053  -0.000000

  0.3742002E-15  0.1111111E+00  0.1262379E-14  0.4444444E-01
    1      -13.868445   1.000000
    2      -12.885295   1.000000
    3      -12.739925   1.000000
    4      -12.353695   1.000000
    5      -11.901284   1.000000
    6      -11.627754   1.000000
    7      -11.589688   1.000000
    8      -11.538575   1.000000
    9      -11.446428   1.000000
   10      -11.201403   1.000000
   11      -11.058015   1.000000
   12      -10.948962   1.000000
   13      -10.821188   1.000000
   14      -10.401688   1.000000
   15      -10.261690   1.000000
   16      -10.166884   1.000000
   17      -10.050602   1.000000
   18       -9.985138   1.000000
   19       -9.780308   1.000000
   20       -9.637910   1.000000
   21       -9.563195   1.000000
   22       -9.489263   1.000000
   23       -9.224620   1.000000
   24       -8.970597   1.000000
   25       -8.883910   1.000000
   26       -8.674248   1.000000
   27       -8.539077   1.000000
   28       -8.374397   1.000000
   29       -8.284474   1.000000
   30       -8.100965   1.000000
   31       -7.837755   1.000000
   32       -7.782280   1.000000
   33       -7.553750   1.000000
   34       -7.377944   1.000000
   35       -7.243225   1.000000
   36       -7.192030   1.000000
   37       -7.075978   1.000000
   38       -6.834408   1.000000
   39       -6.747946   1.000000
   40       -6.685167   1.000000
   41       -6.630536   1.000000
   42       -6.547473   1.000000
   43       -6.440232   1.000000
   44       -6.377292   1.000000
   45       -6.284704   1.000000
   46       -6.220264   1.000000
   47       -6.115057   1.000000
   48       -5.995443   1.000000
   49       -5.902288   1.000000
   50       -5.873707   1.000000
   51       -5.729512   1.000000
   52       -5.683538   1.000000
   53       -5.647456   1.000000
   54       -5.610322   1.000000
   55       -5.487375   1.000000
   56       -5.336911   1.000000
   57       -5.293844   1.000000
   58       -5.226687   1.000000
   59       -5.171629   1.000000
   60       -5.086818   1.000000
   61       -4.958439   1.000000
   62       -4.917060   1.000000
   63       -4.794897   1.000000
   64       -4.669390   1.000000
   65       -4.616372   1.000000
   66       -4.582883   1.000000
   67       -4.550050   1.000000
   68       -4.482640   1.000000
   69       -4.439914   1.000000
   70       -4.421853   1.000000
   71       -4.312564   1.000000
   72       -4.231873   1.000000
   73       -4.165270   1.000000
   74       -4.137313   1.000000
   75       -4.091709   1.000000
   76       -4.009369   1.000000
   77       -3.924630   1.000000
   78       -3.891153   1.000000
   79       -3.768323   1.000000
   80       -3.745573   1.000000
   81       -3.677963   1.000000
   82       -3.624380   1.000000
   83       -3.545819   1.000000
   84       -3.455700   1.000000
   85       -3.419880   1.000000
   86       -3.330348   1.000000
   87       -3.241265   1.000000
   88       -3.204200   1.000000
   89       -3.167930   1.000000
   90       -3.120400   1.000000
   91       -3.066821   1.000000
   92       -3.018277   1.000000
   93       -2.963561   1.000000
   94       -2.862946   1.000000
   95       -2.797573   1.000000
   96       -2.674081   1.000000
   97       -2.646500   1.000000
   98       -2.578879   1.000000
   99       -2.489011   1.000000
  100       -2.447888   1.000000
  101       -2.357446   1.000000
  102       -2.319523   1.000000
  103       -2.288663   1.000000
  104       -2.196845   1.000000
  105       -2.162556   1.000000
  106       -2.099935   1.000000
  107       -2.071251   1.000000
  108       -1.994285   1.000000
  109       -1.908077   1.000000
  110       -1.860041   1.000000
  111       -1.786003   1.000000
  112       -1.686512   1.000000
  113       -1.628452   1.000000
  114       -1.560049   1.000000
  115       -1.374725   1.000000
  116       -1.302145   1.000000
  117       -1.219448   1.000000
  118       -1.135833   1.000000
  119       -1.104883   1.000000
  120       -0.951732   1.000000
  121       -0.860940   1.000000
  122       -0.774759   1.000000
  123       -0.591537   1.000001
  124       -0.520066   1.000006
  125       -0.397555   1.000235
  126       -0.258190   1.005098
  127       -0.224926   1.008915
  128       -0.207497   1.011596
  129       -0.148752   1.023763
  130       -0.122124   1.029737
  131       -0.046445   1.031163
  132        0.071344   0.861438
  133        0.174143   0.475011
  134        0.201900   0.359765
  135        0.288590   0.079190
  136        0.311879   0.033925
  137        0.349674  -0.012624
  138        0.417450  -0.035390
  139        0.510749  -0.018003
  140        0.533483  -0.013443
  141        0.635978  -0.002309
  142        0.714323  -0.000389
  143        0.812618  -0.000026
  144        0.831967  -0.000014
  145        0.881706  -0.000003
  146        0.938345  -0.000000
  147        1.017647  -0.000000
  148        1.069860  -0.000000
  149        1.126645  -0.000000
  150        1.199253  -0.000000
  151        1.223637  -0.000000
  152        1.244287  -0.000000
  153        1.288407  -0.000000
  154        1.329612  -0.000000
  155        1.360974  -0.000000
  156        1.383846  -0.000000
  157        1.422851  -0.000000
  158        1.451577  -0.000000
  159        1.471112  -0.000000
  160        1.511994  -0.000000
  161        1.551350  -0.000000
  162        1.567087  -0.000000
  163        1.592006  -0.000000
  164        1.635963  -0.000000
  165        1.710686  -0.000000
  166        1.743889  -0.000000
  167        1.765971  -0.000000
  168        1.813399  -0.000000
  169        1.824782  -0.000000
  170        1.908334  -0.000000
  171        2.015709  -0.000000
  172        2.062842  -0.000000
  173        2.138134  -0.000000
  174        2.236305  -0.000000
  175        2.573107  -0.000000
  176        2.653135  -0.000000

  0.2000000E+00  0.1111111E+00  0.1262379E-14  0.4444444E-01
    1      -13.827983   1.000000
    2      -13.127529   1.000000
    3      -12.619264   1.000000
    4      -12.123274   1.000000
    5      -11.917246   1.000000
    6      -11.881721   1.000000
    7      -11.667051   1.000000
    8      -11.408807   1.000000
    9      -11.222755   1.000000
   10      -11.186997   1.000000
   11      -11.031345   1.000000
   12      -10.867233   1.000000
   13      -10.803324   1.000000
   14      -10.569334   1.000000
   15      -10.444809   1.000000
   16      -10.277490   1.000000
   17      -10.166654   1.000000
   18      -10.033687   1.000000
   19       -9.720902   1.000000
   20       -9.643826   1.000000
   21       -9.440733   1.000000
   22       -9.359111   1.000000
   23       -9.249890   1.000000
   24       -9.001254   1.000000
   25       -8.925174   1.000000
   26       -8.732863   1.000000
   27       -8.364027   1.000000
   28       -8.220169   1.000000
   29       -8.094999   1.000000
   30       -8.044730   1.000000
   31       -7.992813   1.000000
   32       -7.784850   1.000000
   33       -7.517456   1.000000
   34       -7.468002   1.000000
   35       -7.324087   1.000000
   36       -7.156537   1.000000
   37       -7.131131   1.000000
   38       -6.947966   1.000000
   39       -6.826794   1.000000
   40       -6.736449   1.000000
   41       -6.659767   1.000000
   42       -6.562957   1.000000
   43       -6.488576   1.000000
   44       -6.383141   1.000000
   45       -6.337500   1.000000
   46       -6.290816   1.000000
   47       -6.059421   1.000000
   48       -5.912016   1.000000
   49       -5.823576   1.000000
   50       -5.776285   1.000000
   51       -5.748617   1.000000
   52       -5.683110   1.000000
   53       -5.644914   1.000000
   54       -5.508075   1.000000
   55       -5.420863   1.000000
   56       -5.354572   1.000000
   57       -5.276306   1.000000
   58       -5.206205   1.000000
   59       -5.173946   1.000000
   60       -5.089866   1.000000
   61       -5.002955   1.000000
   62       -4.907421   1.000000
   63       -4.785039   1.000000
   64       -4.701912   1.000000
   65       -4.648498   1.000000
   66       -4.591646   1.000000
   67       -4.518476   1.000000
   68       -4.482455   1.000000
   69       -4.433634   1.000000
   70       -4.351526   1.000000
   71       -4.281582   1.000000
   72       -4.256718   1.000000
   73       -4.212546   1.000000
   74       -4.133366   1.000000
   75       -4.043983   1.000000
   76       -3.998090   1.000000
   77       -3.931471   1.000000
   78       -3.862935   1.000000
   79       -3.824556   1.000000
   80       -3.770011   1.000000
   81       -3.673465   1.000000
   82       -3.611194   1.000000
   83       -3.549427   1.000000
   84       -3.482151   1.000000
   85       -3.420768   1.000000
   86       -3.371075   1.000000
   87       -3.288070   1.000000
   88       -3.208054   1.000000
   89       -3.175152   1.000000
   90       -3.124965   1.000000
   91       -3.079608   1.000000
   92       -3.032344   1.000000
   93       -2.977600   1.000000
   94       -2.905216   1.000000
   95       -2.749925   1.000000
   96       -2.718894   1.000000
   97       -2.615663   1.000000
   98       -2.523527   1.000000
   99       -2.509131   1.000000
  100       -2.403579   1.000000
  101       -2.398243   1.000000
  102       -2.287469   1.000000
  103       -2.232737   1.000000
  104       -2.208218   1.000000
  105       -2.165500   1.000000
  106       -2.118498   1.000000
  107       -2.014820   1.000000
  108       -1.940167   1.000000
  109       -1.892705   1.000000
  110       -1.847967   1.000000
  111       -1.775393   1.000000
  112       -1.695609   1.000000
  113       -1.622705   1.000000
  114       -1.539423   1.000000
  115       -1.389095   1.000000
  116       -1.336942   1.000000
  117       -1.222577   1.000000
  118       -1.167586   1.000000
  119       -1.123764   1.000000
  120       -1.014399   1.000000
  121       -0.840334   1.000000
  122       -0.806869   1.000000
  123       -0.637684   1.000000
  124       -0.558035   1.000002
  125       -0.409098   1.000174
  126       -0.333486   1.001114
  127       -0.249804   1.005909
  128       -0.184720   1.015822
  129       -0.169698   1.019000
  130       -0.130701   1.027888
  131       -0.046297   1.031117
  132        0.051440   0.912693
  133        0.159096   0.538626
  134        0.200270   0.366354
  135        0.254004   0.171445
  136        0.318829   0.022980
  137        0.403910  -0.035105
  138        0.451799  -0.031102
  139        0.496525  -0.021161
  140        0.601861  -0.004474
  141        0.642976  -0.001998
  142        0.695285  -0.000620
  143        0.807878  -0.000030
  144        0.862819  -0.000005
  145        0.947441  -0.000000
  146        0.970501  -0.000000
  147        1.037170  -0.000000
  148        1.100483  -0.000000
  149        1.120864  -0.000000
  150        1.201734  -0.000000
  151        1.232126  -0.000000
  152        1.267356  -0.000000
  153        1.303170  -0.000000
  154        1.325721  -0.000000
  155        1.372152  -0.000000
  156        1.393874  -0.000000
  157        1.438553  -0.000000
  158        1.454717  -0.000000
  159        1.473713  -0.000000
  160        1.524335  -0.000000
  161        1.575367  -0.000000
  162        1.598216  -0.000000
  163        1.627419  -0.000000
  164        1.646772  -0.000000
  165        1.704869  -0.000000
  166        1.744117  -0.000000
  167        1.775726  -0.000000
  168        1.830939  -0.000000
  169        1.853975  -0.000000
  170        1.931773  -0.000000
  171        1.998318  -0.000000
  172        2.030491  -0.000000
  173        2.235222  -0.000000
  174        2.302650  -0.000000
  175        2.318749  -0.000000
  176        2.402688  -0.000000

  0.4000000E+00  0.1111111E+00  0.1262379E-14  0.4444444E-01
    1      -13.725550   1.000000
    2      -13.382215   1.000000
    3      -12.500848   1.000000
    4      -12.174670   1.000000
    5      -11.867104   1.000000
    6      -11.736304   1.000000
    7      -11.634633   1.000000
    8      -11.362684   1.000000
    9      -11.223060   1.000000
   10      -11.099860   1.000000
   11      -10.980738   1.000000