   52   52   85    1
  0.2272233E+02  0.8645320E-09  0.6085000E-09  0.2593596E-08  0.5000000E-15
   1.0000000000000000E-004
  CAR 
 Name                                    
    192    149    128

  0.3742002E-15  0.3742002E-15  0.3742002E-15  0.3367003E-02
    1      -13.860169   1.000000
    2      -12.589980   1.000000
    3      -12.360132   1.000000
    4      -11.819478   1.000000
    5      -11.577669   1.000000
    6      -11.110586   1.000000
    7      -11.031756   1.000000
    8      -11.009218   1.000000
    9      -11.003903   1.000000
   10      -10.578046   1.000000
   11      -10.577924   1.000000
   12      -10.409635   1.000000
   13      -10.181368   1.000000
   14      -10.177113   1.000000
   15       -9.681472   1.000000
   16       -9.678617   1.000000
   17       -9.188014   1.000000
   18       -9.080901   1.000000
   19       -9.069741   1.000000
   20       -8.459739   1.000000
   21       -8.456360   1.000000
   22       -8.398550   1.000000
   23       -8.382600   1.000000
   24       -8.032799   1.000000
   25       -7.910780   1.000000
   26       -7.908792   1.000000
   27       -7.516311   1.000000
   28       -7.442627   1.000000
   29       -7.090727   1.000000
   30       -6.501130   1.000000
   31       -6.489104   1.000000
   32       -6.471008   1.000000
   33       -6.170567   1.000000
   34       -6.134554   1.000000
   35       -5.911515   1.000000
   36       -5.874788   1.000000
   37       -5.494743   1.000000
   38       -5.424949   1.000000
   39       -5.397765   1.000000
   40       -5.362523   1.000000
   41       -5.257673   1.000000
   42       -5.235117   1.000000
   43       -5.029824   1.000000
   44       -4.925771   1.000000
   45       -4.852095   1.000000
   46       -4.756514   1.000000
   47       -4.709745   1.000000
   48       -4.696620   1.000000
   49       -4.579158   1.000000
   50       -4.543688   1.000000
   51       -4.512345   1.000000
   52       -4.494800   1.000000
   53       -4.401583   1.000000
   54       -4.250890   1.000000
   55       -4.235576   1.000000
   56       -4.101668   1.000000
   57       -4.084353   1.000000
   58       -3.998465   1.000000
   59       -3.980517   1.000000
   60       -3.921760   1.000000
   61       -3.836118   1.000000
   62       -3.747535   1.000000
   63       -3.696663   1.000000
   64       -3.473180   1.000000
   65       -3.427374   1.000000
   66       -3.409802   1.000000
   67       -3.369377   1.000000
   68       -3.301386   1.000000
   69       -3.239970   1.000000
   70       -3.239320   1.000000
   71       -3.168188   1.000000
   72       -3.109882   1.000000
   73       -3.096737   1.000000
   74       -2.984653   1.000000
   75       -2.658236   1.000000
   76       -2.316834   1.000000
   77       -2.181671   1.000000
   78       -2.159244   1.000000
   79       -2.092468   1.000000
   80       -1.975950   1.000000
   81       -1.867874   1.000000
   82       -1.684679   1.000000
   83       -1.565070   1.000000
   84       -1.553682   1.000000
   85       -1.397243   1.000000
   86       -1.043449   1.000000
   87       -0.932954   1.000000
   88       -0.889950   1.000000
   89       -0.824147   1.000000
   90       -0.307421   1.000000
   91       -0.121964   1.000120
   92        0.001033   1.017484
   93        0.065552   1.031533
   94        0.104704   0.955613
   95        0.201995   0.269395
   96        0.208343   0.224067
   97        0.212775   0.194369
   98        0.523641  -0.000004
   99        0.541724  -0.000001
  100        0.657569  -0.000000
  101        0.682043  -0.000000
  102        0.688173  -0.000000
  103        0.690629  -0.000000
  104        0.787926  -0.000000
  105        0.981281  -0.000000
  106        1.021785  -0.000000
  107        1.026498  -0.000000
  108        1.243378  -0.000000
  109        1.348082  -0.000000
  110        1.413614  -0.000000
  111        1.511147  -0.000000
  112        1.530009  -0.000000
  113        1.551155  -0.000000
  114        1.602605  -0.000000
  115        1.764546  -0.000000
  116        1.777933  -0.000000
  117        1.780295  -0.000000
  118        1.957778  -0.000000
  119        1.964246  -0.000000
  120        2.002472  -0.000000
  121        2.010303  -0.000000
  122        2.042242  -0.000000
  123        2.086979  -0.000000
  124        2.195253  -0.000000
  125        2.211735  -0.000000
  126        2.239081  -0.000000
  127        2.386856  -0.000000
  128        2.418826  -0.000000

  0.1111111E+00  0.3729374E-15  0.3860503E-15  0.6734007E-02
    1      -13.833117   1.000000
    2      -12.564488   1.000000
    3      -12.477294   1.000000
    4      -11.760644   1.000000
    5      -11.561848   1.000000
    6      -11.158813   1.000000
    7      -11.024735   1.000000
    8      -11.012853   1.000000
    9      -10.988407   1.000000
   10      -10.574556   1.000000
   11      -10.574253   1.000000
   12      -10.408734   1.000000
   13      -10.166088   1.000000
   14      -10.161633   1.000000
   15       -9.679008   1.000000
   16       -9.675920   1.000000
   17       -9.160331   1.000000
   18       -9.096585   1.000000
   19       -9.084104   1.000000
   20       -8.490908   1.000000
   21       -8.489289   1.000000
   22       -8.403446   1.000000
   23       -8.386560   1.000000
   24       -7.975586   1.000000
   25       -7.946377   1.000000
   26       -7.936917   1.000000
   27       -7.573803   1.000000
   28       -7.511962   1.000000
   29       -7.018961   1.000000
   30       -6.478428   1.000000
   31       -6.462521   1.000000
   32       -6.403232   1.000000
   33       -6.142414   1.000000
   34       -6.105352   1.000000
   35       -5.940976   1.000000
   36       -5.881167   1.000000
   37       -5.527595   1.000000
   38       -5.474882   1.000000
   39       -5.369024   1.000000
   40       -5.304328   1.000000
   41       -5.195037   1.000000
   42       -5.190444   1.000000
   43       -5.113673   1.000000
   44       -4.983563   1.000000
   45       -4.807893   1.000000
   46       -4.795250   1.000000
   47       -4.701856   1.000000
   48       -4.658581   1.000000
   49       -4.580671   1.000000
   50       -4.562145   1.000000
   51       -4.494867   1.000000
   52       -4.439140   1.000000
   53       -4.386864   1.000000
   54       -4.234323   1.000000
   55       -4.212639   1.000000
   56       -4.150310   1.000000
   57       -4.079475   1.000000
   58       -4.012519   1.000000
   59       -4.007655   1.000000
   60       -3.920237   1.000000
   61       -3.829687   1.000000
   62       -3.719509   1.000000
   63       -3.709964   1.000000
   64       -3.551802   1.000000
   65       -3.424287   1.000000
   66       -3.379144   1.000000
   67       -3.300258   1.000000
   68       -3.300092   1.000000
   69       -3.252262   1.000000
   70       -3.237568   1.000000
   71       -3.198264   1.000000
   72       -3.110921   1.000000
   73       -3.089456   1.000000
   74       -2.965963   1.000000
   75       -2.704412   1.000000
   76       -2.318768   1.000000
   77       -2.176959   1.000000
   78       -2.153298   1.000000
   79       -2.094942   1.000000
   80       -2.010428   1.000000
   81       -1.894107   1.000000
   82       -1.602901   1.000000
   83       -1.561871   1.000000
   84       -1.540551   1.000000
   85       -1.425358   1.000000
   86       -1.025346   1.000000
   87       -0.936357   1.000000
   88       -0.864911   1.000000
   89       -0.763309   1.000000
   90       -0.371805   1.000000
   91       -0.185416   1.000002
   92       -0.009873   1.013167
   93        0.021451   1.026728
   94        0.099187   0.974047
   95        0.131580   0.822576
   96        0.210806   0.207354
   97        0.338466  -0.020790
   98        0.475682  -0.000083
   99        0.476743  -0.000078
  100        0.638578  -0.000000
  101        0.653970  -0.000000
  102        0.740528  -0.000000
  103        0.782909  -0.000000
  104        0.784918  -0.000000
  105        0.970552  -0.000000
  106        1.053662  -0.000000
  107        1.060126  -0.000000
  108        1.311572  -0.000000
  109        1.391568  -0.000000
  110        1.400984  -0.000000
  111        1.511566  -0.000000
  112        1.544303  -0.000000
  113        1.561034  -0.000000
  114        1.628115  -0.000000
  115        1.750639  -0.000000
  116        1.755306  -0.000000
  117        1.756473  -0.000000
  118        1.951757  -0.000000
  119        1.952806  -0.000000
  120        2.002278  -0.000000
  121        2.010159  -0.000000
  122        2.034664  -0.000000
  123        2.089541  -0.000000
  124        2.178594  -0.000000
  125        2.217847  -0.000000
  126        2.232372  -0.000000
  127        2.340826  -0.000000
  128        2.376551  -0.000000

  0.2222222E+00  0.3922785E-15  0.3630220E-15  0.6734007E-02
    1      -13.752721   1.000000
    2      -12.715641   1.000000
    3      -12.489067   1.000000
    4      -11.725879   1.000000
    5      -11.516915   1.000000
    6      -11.247647   1.000000
    7      -11.010778   1.000000
    8      -11.006603   1.000000
    9      -10.938661   1.000000
   10      -10.563775   1.000000
   11      -10.562592   1.000000
   12      -10.439524   1.000000
   13      -10.129165   1.000000
   14      -10.124739   1.000000
   15       -9.671242   1.000000
   16       -9.667635   1.000000
   17       -9.132028   1.000000
   18       -9.129389   1.000000
   19       -9.046813   1.000000
   20       -8.598515   1.000000
   21       -8.593867   1.000000
   22       -8.394610   1.000000
   23       -8.383122   1.000000
   24       -8.035835   1.000000
   25       -8.033591   1.000000
   26       -7.822496   1.000000
   27       -7.778872   1.000000
   28       -7.471101   1.000000
   29       -6.955396   1.000000
   30       -6.436924   1.000000
   31       -6.420117   1.000000
   32       -6.224151   1.000000
   33       -6.121408   1.000000
   34       -6.066573   1.000000
   35       -6.032661   1.000000
   36       -5.814545   1.000000
   37       -5.511438   1.000000
   38       -5.475170   1.000000
   39       -5.433086   1.000000
   40       -5.357538   1.000000
   41       -5.109223   1.000000
   42       -5.061438   1.000000
   43       -5.040969   1.000000
   44       -4.942077   1.000000
   45       -4.888588   1.000000
   46       -4.845627   1.000000
   47       -4.833694   1.000000
   48       -4.564027   1.000000
   49       -4.555678   1.000000
   50       -4.540643   1.000000
   51       -4.466828   1.000000
   52       -4.399414   1.000000
   53       -4.358090   1.000000
   54       -4.250802   1.000000
   55       -4.212274   1.000000
   56       -4.090535   1.000000
   57       -4.089801   1.000000
   58       -4.031583   1.000000
   59       -4.030621   1.000000
   60       -3.887382   1.000000
   61       -3.834835   1.000000
   62       -3.739239   1.000000
   63       -3.680385   1.000000
   64       -3.636461   1.000000
   65       -3.478152   1.000000
   66       -3.374955   1.000000
   67       -3.370428   1.000000
   68       -3.271311   1.000000
   69       -3.243006   1.000000
   70       -3.229851   1.000000
   71       -3.187862   1.000000
   72       -3.086482   1.000000
   73       -3.027277   1.000000
   74       -2.888482   1.000000
   75       -2.792741   1.000000
   76       -2.332088   1.000000
   77       -2.279091   1.000000
   78       -2.128679   1.000000
   79       -2.122922   1.000000
   80       -2.034903   1.000000
   81       -1.905690   1.000000
   82       -1.608541   1.000000
   83       -1.557065   1.000000
   84       -1.466040   1.000000
   85       -1.340170   1.000000
   86       -0.992494   1.000000
   87       -0.942571   1.000000
   88       -0.837369   1.000000
   89       -0.528799   1.000000
   90       -0.504447   1.000000
   91       -0.332902   1.000000
   92       -0.184151   1.000003
   93       -0.030785   1.006943
   94       -0.009091   1.013454
   95        0.202279   0.267302
   96        0.300281  -0.035189
   97        0.350889  -0.015457
   98        0.353413  -0.014467
   99        0.496047  -0.000025
  100        0.632770  -0.000000
  101        0.681670  -0.000000
  102        0.718531  -0.000000
  103        0.806491  -0.000000
  104        0.813085  -0.000000
  105        1.014124  -0.000000
  106        1.204870  -0.000000
  107        1.207788  -0.000000
  108        1.313565  -0.000000
  109        1.432418  -0.000000
  110        1.478515  -0.000000
  111        1.506041  -0.000000
  112        1.584246  -0.000000
  113        1.584351  -0.000000
  114        1.671854  -0.000000
  115        1.692568  -0.000000
  116        1.721449  -0.000000
  117        1.735153  -0.000000
  118        1.913360  -0.000000
  119        1.935705  -0.000000
  120        1.985322  -0.000000
  121        1.994931  -0.000000
  122        2.031996  -0.000000
  123        2.088454  -0.000000
  124        2.139038  -0.000000
  125        2.192751  -0.000000
  126        2.228149  -0.000000
  127        2.275147  -0.000000
  128        2.310142  -0.000000

  0.3333333E+00  0.3713828E-15  0.3468587E-15  0.6734007E-02
    1      -13.621342   1.000000
    2      -12.976672   1.000000
    3      -12.367151   1.000000
    4      -11.833398   1.000000
    5      -11.450957   1.000000
    6      -11.287706   1.000000
    7      -10.997004   1.000000
    8      -10.995291   1.000000
    9      -10.857834   1.000000
   10      -10.555441   1.000000
   11      -10.544634   1.000000
   12      -10.513632   1.000000
   13      -10.092359   1.000000
   14      -10.089079   1.000000
   15       -9.656266   1.000000
   16       -9.652762   1.000000
   17       -9.151614   1.000000
   18       -9.151215   1.000000
   19       -8.881336   1.000000
   20       -8.738785   1.000000
   21       -8.733111   1.000000
   22       -8.377837   1.000000
   23       -8.377673   1.000000
   24       -8.134898   1.000000
   25       -8.121339   1.000000
   26       -8.086228   1.000000
   27       -7.536200   1.000000
   28       -7.346535   1.000000
   29       -6.992089   1.000000
   30       -6.455427   1.000000
   31       -6.391751   1.000000
   32       -6.351968   1.000000
   33       -6.048282   1.000000
   34       -6.009562   1.000000
   35       -5.893163   1.000000
   36       -5.699168   1.000000
   37       -5.543455   1.000000
   38       -5.447588   1.000000
   39       -5.381981   1.000000
   40       -5.353630   1.000000
   41       -5.088746   1.000000
   42       -5.088548   1.000000
   43       -5.029411   1.000000
   44       -5.011322   1.000000
   45       -4.891611   1.000000
   46       -4.827097   1.000000
   47       -4.755826   1.000000
   48       -4.549505   1.000000
   49       -4.513682   1.000000
   50       -4.497392   1.000000
   51       -4.451972   1.000000
   52       -4.415559   1.000000
   53       -4.375609   1.000000
   54       -4.230939   1.000000
   55       -4.142798   1.000000
   56       -4.138356   1.000000
   57       -4.072592   1.000000
   58       -4.002611   1.000000
   59       -3.982772   1.000000
   60       -3.870676   1.000000
   61       -3.823530   1.000000
   62       -3.761660   1.000000
   63       -3.737460   1.000000
   64       -3.662981   1.000000
   65       -3.606254   1.000000
   66       -3.404420   1.000000
   67       -3.381324   1.000000
   68       -3.299783   1.000000
   69       -3.246732   1.000000
   70       -3.227803   1.000000
   71       -3.142345   1.000000
   72       -3.086154   1.000000
   73       -2.909704   1.000000
   74       -2.805633   1.000000
   75       -2.760847   1.000000
   76       -2.424279   1.000000
   77       -2.392878   1.000000
   78       -2.255427   1.000000
   79       -2.146341   1.000000
   80       -2.008663   1.000000
   81       -1.840577   1.000000
   82       -1.695269   1.000000
   83       -1.544399   1.000000
   84       -1.461860   1.000000
   85       -1.098211   1.000000
   86       -0.950007   1.000000
   87       -0.916012   1.000000
   88       -0.698663   1.000000
   89       -0.650020   1.000000
   90       -0.491485   1.000000
   91       -0.386404   1.000000
   92       -0.207358   1.000001
   93       -0.183543   1.000003
   94       -0.178785   1.000004
   95        0.216220   0.172487
   96        0.286957  -0.034044
   97        0.293661  -0.035372
   98        0.430160  -0.000856
   99        0.468225  -0.000125
  100        0.677988  -0.000000
  101        0.697627  -0.000000
  102        0.743937  -0.000000
  103        0.746296  -0.000000
  104        0.980717  -0.000000
  105        1.132505  -0.000000
  106        1.139721  -0.000000
  107        1.392600  -0.000000
  108        1.397410  -0.000000
  109        1.495285  -0.000000
  110        1.510959  -0.000000
  111        1.539846  -0.000000
  112        1.601723  -0.000000
  113        1.619784  -0.000000
  114        1.625810  -0.000000
  115        1.651725  -0.000000
  116        1.687902  -0.000000
  117        1.797904  -0.000000
  118        1.871553  -0.000000
  119        1.915542  -0.000000
  120        1.921426  -0.000000
  121        1.975464  -0.000000
  122        2.021988  -0.000000
  123        2.073138  -0.000000
  124        2.077126  -0.000000
  125        2.111343  -0.000000
  126        2.139029  -0.000000
  127        2.240459  -0.000000
  128        2.257712  -0.000000

  0.4444444E+00  0.3870091E-15  0.3932070E-15  0.6734007E-02
    1      -13.443189   1.000000
    2      -13.224882   1.000000
    3      -12.205575   1.000000
    4      -12.017653   1.000000
    5      -11.378677   1.000000
    6      -11.320200   1.000000
    7      -10.988348   1.000000
    8      -10.987849   1.000000
    9      -10.754630   1.000000
   10      -10.640804   1.000000
   11      -10.529050   1.000000
   12      -10.526300   1.000000
   13      -10.073205   1.000000
   14      -10.072030   1.000000
   15       -9.638836   1.000000
   16       -9.637249   1.000000
   17       -9.151260   1.000000
   18       -9.150932   1.000000
   19       -8.845196   1.000000
   20       -8.844185   1.000000
   21       -8.658180   1.000000
   22       -8.428111   1.000000
   23       -8.357943   1.000000
   24       -8.323132   1.000000
   25       -8.177981   1.000000
   26       -8.177805   1.000000
   27       -7.306783   1.000000
   28       -7.121534   1.000000
   29       -7.099143   1.000000
   30       -6.765657   1.000000
   31       -6.380620   1.000000
   32       -6.377679   1.000000
   33       -5.975399   1.000000
   34       -5.967848   1.000000
   35       -5.676810   1.000000
   36       -5.578785   1.000000
   37       -5.532163   1.000000
   38       -5.411282   1.000000
   39       -5.374691   1.000000
   40       -5.330154   1.000000
   41       -5.244783   1.000000
   42       -5.236754   1.000000
   43       -5.051875   1.000000
   44       -5.051448   1.000000
   45       -4.768169   1.000000
   46       -4.720063   1.000000
   47       -4.638862   1.000000
   48       -4.613371   1.000000
   49       -4.555782   1.000000
   50       -4.463620   1.000000
   51       -4.443232   1.000000
   52       -4.375364   1.000000
   53       -4.336948   1.000000
   54       -4.259929   1.000000
   55       -4.166194   1.000000
   56       -4.073123   1.000000
   57       -4.034263   1.000000
   58       -4.033564   1.000000
   59       -3.955798   1.000000
   60       -3.861753   1.000000
   61       -3.835650   1.000000
   62       -3.802754   1.000000
   63       -3.753547   1.000000
   64       -3.748332   1.000000
   65       -3.569633   1.000000
   66       -3.481658   1.000000
   67       -3.377950   1.000000
   68       -3.358170   1.000000
   69       -3.225101   1.000000
   70       -3.211952   1.000000
   71       -3.118892   1.000000
   72       -3.098853   1.000000
   73       -2.779921   1.000000
   74       -2.746913   1.000000
   75       -2.638099   1.000000
   76       -2.564498   1.000000
   77       -2.475461   1.000000
   78       -2.401346   1.000000
   79       -2.119562   1.000000
   80       -2.051317   1.000000
   81       -1.794213   1.000000
   82       -1.761563   1.000000
   83       -1.491940   1.000000
   84       -1.451981   1.000000
   85       -0.933269   1.000000
   86       -0.873469   1.000000
   87       -0.862746   1.000000
   88       -0.788798   1.000000
   89       -0.580290   1.000000
   90       -0.541980   1.000000
   91       -0.427101   1.000000
   92       -0.346363   1.000000
   93       -0.331457   1.000000
   94       -0.075515   1.001210
   95        0.138539   0.776801
   96        0.291251  -0.035091
   97        0.299593  -0.035266
   98        0.391660  -0.004258
   99        0.656488  -0.000000
  100        0.659904  -0.000000
  101        0.693638  -0.000000
  102        0.706399  -0.000000
  103        0.733871  -0.000000
  104        0.919341  -0.000000
  105        1.289097  -0.000000
  106        1.308372  -0.000000
  107        1.411211  -0.000000
  108        1.499377  -0.000000
  109        1.514993  -0.000000
  110        1.546312  -0.000000
  111        1.561652  -0.000000
  112        1.607290  -0.000000
  113        1.608355  -0.000000
  114        1.645677  -0.000000
  115        1.650836  -0.000000
  116        1.687875  -0.000000
  117        1.699292  -0.000000
  118        1.839161  -0.000000
  119        1.851030  -0.000000
  120        1.871333  -0.000000
  121        1.890419  -0.000000
  122        1.932023  -0.000000
  123        2.037500  -0.000000
  124        2.097570  -0.000000
  125        2.154484  -0.000000
  126        2.192513  -0.000000
  127        2.205455  -0.000000
  128        2.250765  -0.000000

  0.3742002E-15  0.9090909E-01  0.3596334E-15  0.6734007E-02
    1      -13.826902   1.000000
    2      -12.559499   1.000000
    3      -12.365445   1.000000
    4      -11.787346   1.000000
    5      -11.555857   1.000000
    6      -11.227470   1.000000
    7      -11.173028   1.000000
    8      -11.079955   1.000000
    9      -10.986591   1.000000
   10      -10.595817   1.000000
   11      -10.568683   1.000000
   12      -10.387075   1.000000
   13      -10.121901   1.000000
   14      -10.121037   1.000000
   15       -9.711631   1.000000
   16       -9.693121   1.000000
   17       -9.159446   1.000000
   18       -9.089266   1.000000
   19       -9.072344   1.000000
   20       -8.546432   1.000000
   21       -8.542158   1.000000
   22       -8.254608   1.000000
   23       -8.243523   1.000000
   24       -7.983744   1.000000
   25       -7.770526   1.000000
   26       -7.734507   1.000000
   27       -7.502314   1.000000
   28       -7.485945   1.000000
   29       -7.073230   1.000000
   30       -6.555626   1.000000
   31       -6.474250   1.000000
   32       -6.432669   1.000000
   33       -6.161491   1.000000
   34       -6.100209   1.000000
   35       -5.967708   1.000000
   36       -5.814255   1.000000
   37       -5.562076   1.000000
   38       -5.508001   1.000000
   39       -5.363321   1.000000
   40       -5.280798   1.000000
   41       -5.256310   1.000000
   42       -5.209269   1.000000
   43       -5.140582   1.000000
   44       -4.960245   1.000000
   45       -4.868545   1.000000
   46       -4.810989   1.000000
   47       -4.734691   1.000000
   48       -4.699472   1.000000
   49       -4.674590   1.000000
   50       -4.621886   1.000000
   51       -4.526174   1.000000
   52       -4.504927   1.000000
   53       -4.389868   1.000000
   54       -4.280726   1.000000
   55       -4.256223   1.000000
   56       -4.115781   1.000000
   57       -4.105091   1.000000
   58       -4.006709   1.000000
   59       -3.986637   1.000000
   60       -3.897289   1.000000
   61       -3.883027   1.000000
   62       -3.762186   1.000000
   63       -3.675387   1.000000
   64       -3.481430   1.000000
   65       -3.466685   1.000000
   66       -3.380525   1.000000
   67       -3.370392   1.000000
   68       -3.296722   1.000000
   69       -3.243218   1.000000
   70       -3.219389   1.000000
   71       -3.153033   1.000000
   72       -3.121526   1.000000
   73       -2.980705   1.000000
   74       -2.976428   1.000000
   75       -2.839808   1.000000
   76       -2.302378   1.000000
   77       -2.167828   1.000000
   78       -2.103919   1.000000
   79       -2.058180   1.000000
   80       -1.884822   1.000000
   81       -1.867601   1.000000
   82       -1.695920   1.000000
   83       -1.586628   1.000000
   84       -1.564807   1.000000
   85       -1.351108   1.000000
   86       -1.063780   1.000000
   87       -0.946423   1.000000
   88       -0.943720   1.000000
   89       -0.868634   1.000000
   90       -0.444781   1.000000
   91       -0.214786   1.000000
   92       -0.126563   1.000093
   93        0.001891   1.017850
   94        0.096787   0.981164
   95        0.118058   0.898527
   96        0.137312   0.785175
   97        0.248539   0.023766
   98        0.424331  -0.001116
   99        0.500582  -0.000019
  100        0.586134  -0.000000
  101        0.708693  -0.000000
  102        0.731604  -0.000000
  103        0.780253  -0.000000
  104        0.997565  -0.000000
  105        1.047022  -0.000000
  106        1.050562  -0.000000
  107        1.091833  -0.000000
  108        1.265899  -0.000000
  109        1.388688  -0.000000
  110        1.438707  -0.000000
  111        1.502272  -0.000000
  112        1.515817  -0.000000
  113        1.539019  -0.000000
  114        1.613453  -0.000000
  115        1.741377  -0.000000
  116        1.748676  -0.000000
  117        1.793975  -0.000000
  118        1.849784  -0.000000
  119        1.902479  -0.000000
  120        2.015417  -0.000000
  121        2.030083  -0.000000
  122        2.067315  -0.000000
  123        2.099634  -0.000000
  124        2.142128  -0.000000
  125        2.193719  -0.000000
  126        2.255746  -0.000000
  127        2.338128  -0.000000
  128        2.436563  -0.000000

  0.1111111E+00  0.9090909E-01  0.4822234E-15  0.6734007E-02
    1      -13.777991   1.000000
    2      -12.548214   1.000000
    3      -12.513500   1.000000
    4      -11.715642   1.000000
    5      -11.527020   1.000000
    6      -11.274965   1.000000
    7      -11.164904   1.000000
    8      -11.118228   1.000000
    9      -10.954536   1.000000
   10      -10.598776   1.000000
   11      -10.504094   1.000000
   12      -10.392767   1.000000
   13      -10.134808   1.000000
   14      -10.117643   1.000000
   15       -9.725361   1.000000
   16       -9.664949   1.000000
   17       -9.138738   1.000000
   18       -9.085372   1.000000
   19       -9.063911   1.000000
   20       -8.591600   1.000000
   21       -8.586663   1.000000
   22       -8.321432   1.000000
   23       -8.272267   1.000000
   24       -7.869186   1.000000
   25       -7.817430   1.000000
   26       -7.768983   1.000000
   27       -7.671854   1.000000
   28       -7.474145   1.000000
   29       -6.993455   1.000000
   30       -6.600968   1.000000
   31       -6.369145   1.000000
   32       -6.310346   1.000000
   33       -6.143106   1.000000
   34       -6.043035   1.000000
   35       -5.988602   1.000000
   36       -5.865860   1.000000
   37       -5.621417   1.000000
   38       -5.461795   1.000000
   39       -5.339715   1.000000
   40       -5.307768   1.000000
   41       -5.186055   1.000000
   42       -5.183828   1.000000
   43       -5.098443   1.000000
   44       -4.985923   1.000000
   45       -4.920832   1.000000
   46       -4.896563   1.000000
   47       -4.743268   1.000000
   48       -4.625981   1.000000
   49       -4.623698   1.000000
   50       -4.567991   1.000000
   51       -4.518104   1.000000
   52       -4.410504   1.000000
   53       -4.367826   1.000000
   54       -4.322231   1.000000
   55       -4.216162   1.000000
   56       -4.167000   1.000000
   57       -4.139170   1.000000
   58       -4.045529   1.000000
   59       -3.975763   1.000000
   60       -3.920202   1.000000
   61       -3.859100   1.000000
   62       -3.720032   1.000000
   63       -3.666031   1.000000
   64       -3.524709   1.000000
   65       -3.476055   1.000000
   66       -3.424161   1.000000
   67       -3.420062   1.000000
   68       -3.291040   1.000000
   69       -3.217215   1.000000
   70       -3.168076   1.000000
   71       -3.137856   1.000000
   72       -3.088792   1.000000
   73       -3.031924   1.000000
   74       -2.954967   1.000000
   75       -2.858173   1.000000
   76       -2.321525   1.000000
   77       -2.179377   1.000000
   78       -2.143679   1.000000
   79       -2.085995   1.000000
   80       -1.931832   1.000000
   81       -1.905251   1.000000
   82       -1.616200   1.000000
   83       -1.596888   1.000000
   84       -1.519945   1.000000
   85       -1.363327   1.000000
   86       -1.055089   1.000000
   87       -0.901393   1.000000
   88       -0.900574   1.000000
   89       -0.755153   1.000000
   90       -0.535402   1.000000
   91       -0.219497   1.000000
   92       -0.161121   1.000012
   93       -0.055813   1.002774
   94        0.050686   1.035456
   95        0.071669   1.026928
   96        0.263575  -0.011520
   97        0.277850  -0.029069
   98        0.360528  -0.011881
   99        0.466982  -0.000134
  100        0.554226  -0.000001
  101        0.686059  -0.000000
  102        0.788685  -0.000000
  103        0.854399  -0.000000
  104        0.923033  -0.000000
  105        1.015392  -0.000000
  106        1.066494  -0.000000
  107        1.237183  -0.000000
  108        1.345146  -0.000000
  109        1.375169  -0.000000
  110        1.416922  -0.000000
  111        1.528485  -0.000000
  112        1.537232  -0.000000
  113        1.587529  -0.000000
  114        1.662759  -0.000000
  115        1.724149  -0.000000
  116        1.736844  -0.000000
  117        1.758481  -0.000000
  118        1.798941  -0.000000
  119        1.924433  -0.000000
  120        1.966358  -0.000000
  121        2.040496  -0.000000
  122        2.041733  -0.000000