   48   48   85    1
  0.2089534E+02  0.8733603E-09  0.6079487E-09  0.2183401E-08  0.5000000E-15
   1.0000000000000000E-004
  CAR 
 Name                                    
    184     50    120

  0.3742002E-15  0.3742002E-15  0.1262379E-14  0.1010101E-01
    1      -13.257516   1.000000
    2      -11.887922   1.000000
    3      -11.813229   1.000000
    4      -11.399789   1.000000
    5      -10.634658   1.000000
    6      -10.477915   1.000000
    7      -10.350530   1.000000
    8      -10.272555   1.000000
    9      -10.128671   1.000000
   10       -9.971843   1.000000
   11       -9.970843   1.000000
   12       -9.552947   1.000000
   13       -9.430422   1.000000
   14       -9.421642   1.000000
   15       -9.020656   1.000000
   16       -9.009926   1.000000
   17       -8.087094   1.000000
   18       -7.985313   1.000000
   19       -7.983767   1.000000
   20       -7.699668   1.000000
   21       -7.693633   1.000000
   22       -7.433816   1.000000
   23       -7.388909   1.000000
   24       -7.304506   1.000000
   25       -7.277865   1.000000
   26       -7.238575   1.000000
   27       -6.561316   1.000000
   28       -6.169719   1.000000
   29       -5.694722   1.000000
   30       -5.638644   1.000000
   31       -5.602227   1.000000
   32       -5.307140   1.000000
   33       -5.020813   1.000000
   34       -5.002931   1.000000
   35       -4.905072   1.000000
   36       -4.655892   1.000000
   37       -4.595730   1.000000
   38       -4.546810   1.000000
   39       -4.439180   1.000000
   40       -4.297889   1.000000
   41       -4.232805   1.000000
   42       -4.177800   1.000000
   43       -4.071963   1.000000
   44       -4.022179   1.000000
   45       -3.927813   1.000000
   46       -3.838571   1.000000
   47       -3.822804   1.000000
   48       -3.763088   1.000000
   49       -3.738201   1.000000
   50       -3.675291   1.000000
   51       -3.675001   1.000000
   52       -3.450903   1.000000
   53       -3.317792   1.000000
   54       -3.229203   1.000000
   55       -3.218018   1.000000
   56       -3.103577   1.000000
   57       -3.089939   1.000000
   58       -3.024418   1.000000
   59       -2.835387   1.000000
   60       -2.786552   1.000000
   61       -2.783385   1.000000
   62       -2.635037   1.000000
   63       -2.600270   1.000000
   64       -2.584575   1.000000
   65       -2.531466   1.000000
   66       -2.420833   1.000000
   67       -2.355518   1.000000
   68       -2.295550   1.000000
   69       -2.263001   1.000000
   70       -2.215904   1.000000
   71       -1.737080   1.000000
   72       -1.711185   1.000000
   73       -1.533834   1.000000
   74       -1.469904   1.000000
   75       -1.452386   1.000000
   76       -1.431933   1.000000
   77       -1.355468   1.000000
   78       -1.280295   1.000000
   79       -1.213905   1.000000
   80       -1.130223   1.000000
   81       -0.820169   1.000000
   82       -0.641634   1.000000
   83       -0.383057   1.000000
   84       -0.357224   1.000000
   85       -0.146940   1.000000
   86       -0.098460   1.000000
   87       -0.027187   1.000000
   88       -0.012207   1.000000
   89        0.351025   1.000418
   90        0.429385   1.009889
   91        0.491271   1.034387
   92        0.749479  -0.035178
   93        0.781048  -0.023789
   94        0.802230  -0.014578
   95        0.852628  -0.002698
   96        0.957006  -0.000012
   97        1.034981  -0.000000
   98        1.234569  -0.000000
   99        1.266407  -0.000000
  100        1.266674  -0.000000
  101        1.276248  -0.000000
  102        1.371944  -0.000000
  103        1.406483  -0.000000
  104        1.417184  -0.000000
  105        1.427937  -0.000000
  106        1.794716  -0.000000
  107        1.811272  -0.000000
  108        1.862891  -0.000000
  109        1.874507  -0.000000
  110        1.878534  -0.000000
  111        1.940516  -0.000000
  112        2.019394  -0.000000
  113        2.022626  -0.000000
  114        2.051389  -0.000000
  115        2.157423  -0.000000
  116        2.179065  -0.000000
  117        2.224243  -0.000000
  118        2.404926  -0.000000
  119        2.433933  -0.000000
  120        2.438441  -0.000000

  0.1111111E+00  0.3694577E-15  0.1266495E-14  0.2020202E-01
    1      -13.232448   1.000000
    2      -11.941332   1.000000
    3      -11.866047   1.000000
    4      -11.320665   1.000000
    5      -10.624413   1.000000
    6      -10.506617   1.000000
    7      -10.338939   1.000000
    8      -10.274752   1.000000
    9      -10.130808   1.000000
   10       -9.965863   1.000000
   11       -9.958769   1.000000
   12       -9.554362   1.000000
   13       -9.428895   1.000000
   14       -9.428775   1.000000
   15       -9.003473   1.000000
   16       -8.992108   1.000000
   17       -8.076430   1.000000
   18       -7.987011   1.000000
   19       -7.977804   1.000000
   20       -7.710600   1.000000
   21       -7.706315   1.000000
   22       -7.485682   1.000000
   23       -7.472248   1.000000
   24       -7.283868   1.000000
   25       -7.279622   1.000000
   26       -7.174408   1.000000
   27       -6.646746   1.000000
   28       -6.184507   1.000000
   29       -5.662969   1.000000
   30       -5.610301   1.000000
   31       -5.513722   1.000000
   32       -5.290358   1.000000
   33       -5.030713   1.000000
   34       -4.999605   1.000000
   35       -4.901732   1.000000
   36       -4.856054   1.000000
   37       -4.551406   1.000000
   38       -4.527375   1.000000
   39       -4.313010   1.000000
   40       -4.309733   1.000000
   41       -4.285639   1.000000
   42       -4.061506   1.000000
   43       -4.055217   1.000000
   44       -4.010850   1.000000
   45       -3.874374   1.000000
   46       -3.867774   1.000000
   47       -3.833034   1.000000
   48       -3.755681   1.000000
   49       -3.720119   1.000000
   50       -3.662644   1.000000
   51       -3.653696   1.000000
   52       -3.442247   1.000000
   53       -3.306788   1.000000
   54       -3.234947   1.000000
   55       -3.195915   1.000000
   56       -3.133508   1.000000
   57       -3.116520   1.000000
   58       -3.046555   1.000000
   59       -2.849236   1.000000
   60       -2.793067   1.000000
   61       -2.778668   1.000000
   62       -2.655334   1.000000
   63       -2.633976   1.000000
   64       -2.580710   1.000000
   65       -2.514377   1.000000
   66       -2.420269   1.000000
   67       -2.312982   1.000000
   68       -2.298886   1.000000
   69       -2.280488   1.000000
   70       -2.193049   1.000000
   71       -1.816952   1.000000
   72       -1.685354   1.000000
   73       -1.565948   1.000000
   74       -1.518929   1.000000
   75       -1.481880   1.000000
   76       -1.462808   1.000000
   77       -1.322546   1.000000
   78       -1.321539   1.000000
   79       -1.236753   1.000000
   80       -1.100872   1.000000
   81       -0.732021   1.000000
   82       -0.681337   1.000000
   83       -0.419585   1.000000
   84       -0.389767   1.000000
   85       -0.164703   1.000000
   86       -0.078765   1.000000
   87       -0.018821   1.000000
   88        0.075999   1.000000
   89        0.314297   1.000058
   90        0.384846   1.001966
   91        0.464570   1.023973
   92        0.737368  -0.034441
   93        0.768372  -0.029493
   94        0.886756  -0.000601
   95        0.935813  -0.000044
   96        0.940914  -0.000032
   97        0.987770  -0.000002
   98        1.192764  -0.000000
   99        1.294999  -0.000000
  100        1.300236  -0.000000
  101        1.300350  -0.000000
  102        1.401498  -0.000000
  103        1.411218  -0.000000
  104        1.437049  -0.000000
  105        1.450444  -0.000000
  106        1.815687  -0.000000
  107        1.845687  -0.000000
  108        1.853975  -0.000000
  109        1.858189  -0.000000
  110        1.916907  -0.000000
  111        1.949724  -0.000000
  112        2.012835  -0.000000
  113        2.028054  -0.000000
  114        2.078856  -0.000000
  115        2.174035  -0.000000
  116        2.185452  -0.000000
  117        2.215095  -0.000000
  118        2.396980  -0.000000
  119        2.411777  -0.000000
  120        2.457524  -0.000000

  0.2222222E+00  0.3681327E-15  0.1265439E-14  0.2020202E-01
    1      -13.157889   1.000000
    2      -12.179881   1.000000
    3      -11.801633   1.000000
    4      -11.247796   1.000000
    5      -10.596947   1.000000
    6      -10.549893   1.000000
    7      -10.313577   1.000000
    8      -10.280431   1.000000
    9      -10.120754   1.000000
   10       -9.949957   1.000000
   11       -9.931654   1.000000
   12       -9.583747   1.000000
   13       -9.446520   1.000000
   14       -9.427996   1.000000
   15       -8.951557   1.000000
   16       -8.940062   1.000000
   17       -8.034678   1.000000
   18       -7.996915   1.000000
   19       -7.956506   1.000000
   20       -7.763859   1.000000
   21       -7.760432   1.000000
   22       -7.573970   1.000000
   23       -7.566702   1.000000
   24       -7.309639   1.000000
   25       -7.297221   1.000000
   26       -7.018640   1.000000
   27       -6.851525   1.000000
   28       -6.164252   1.000000
   29       -5.606720   1.000000
   30       -5.576089   1.000000
   31       -5.435238   1.000000
   32       -5.279381   1.000000
   33       -5.163719   1.000000
   34       -4.972153   1.000000
   35       -4.861854   1.000000
   36       -4.859552   1.000000
   37       -4.566790   1.000000
   38       -4.409038   1.000000
   39       -4.307906   1.000000
   40       -4.285133   1.000000
   41       -4.212536   1.000000
   42       -4.071551   1.000000
   43       -3.985780   1.000000
   44       -3.941082   1.000000
   45       -3.916701   1.000000
   46       -3.808678   1.000000
   47       -3.768533   1.000000
   48       -3.739248   1.000000
   49       -3.660067   1.000000
   50       -3.644619   1.000000
   51       -3.591958   1.000000
   52       -3.437806   1.000000
   53       -3.305128   1.000000
   54       -3.240664   1.000000
   55       -3.205159   1.000000
   56       -3.186301   1.000000
   57       -3.129133   1.000000
   58       -3.052636   1.000000
   59       -2.868604   1.000000
   60       -2.805879   1.000000
   61       -2.777533   1.000000
   62       -2.698883   1.000000
   63       -2.659673   1.000000
   64       -2.567919   1.000000
   65       -2.549269   1.000000
   66       -2.484322   1.000000
   67       -2.353705   1.000000
   68       -2.213716   1.000000
   69       -2.190814   1.000000
   70       -2.146717   1.000000
   71       -1.986360   1.000000
   72       -1.672050   1.000000
   73       -1.663825   1.000000
   74       -1.591698   1.000000
   75       -1.534349   1.000000
   76       -1.529672   1.000000
   77       -1.416817   1.000000
   78       -1.317309   1.000000
   79       -1.282230   1.000000
   80       -0.963945   1.000000
   81       -0.845279   1.000000
   82       -0.520461   1.000000
   83       -0.516128   1.000000
   84       -0.463381   1.000000
   85       -0.147717   1.000000
   86       -0.037658   1.000000
   87        0.001511   1.000000
   88        0.231993   1.000000
   89        0.264043   1.000002
   90        0.290102   1.000014
   91        0.396479   1.003145
   92        0.657796   0.221686
   93        0.865202  -0.001602
   94        0.926713  -0.000074
   95        0.933316  -0.000051
   96        0.975189  -0.000004
   97        1.074475  -0.000000
   98        1.210949  -0.000000
   99        1.281550  -0.000000
  100        1.286819  -0.000000
  101        1.394118  -0.000000
  102        1.430628  -0.000000
  103        1.450494  -0.000000
  104        1.498616  -0.000000
  105        1.534100  -0.000000
  106        1.786491  -0.000000
  107        1.856807  -0.000000
  108        1.868214  -0.000000
  109        1.940975  -0.000000
  110        1.959088  -0.000000
  111        1.980627  -0.000000
  112        2.032241  -0.000000
  113        2.039059  -0.000000
  114        2.124663  -0.000000
  115        2.185914  -0.000000
  116        2.221172  -0.000000
  117        2.253722  -0.000000
  118        2.361592  -0.000000
  119        2.382410  -0.000000
  120        2.407433  -0.000000

  0.3333333E+00  0.3672355E-15  0.1308213E-14  0.2020202E-01
    1      -13.035828   1.000000
    2      -12.430765   1.000000
    3      -11.698685   1.000000
    4      -11.291744   1.000000
    5      -10.562159   1.000000
    6      -10.550797   1.000000
    7      -10.296790   1.000000
    8      -10.287143   1.000000
    9      -10.069311   1.000000
   10       -9.932057   1.000000
   11       -9.902478   1.000000
   12       -9.673720   1.000000
   13       -9.454696   1.000000
   14       -9.433835   1.000000
   15       -8.872427   1.000000
   16       -8.863692   1.000000
   17       -8.047962   1.000000
   18       -8.047575   1.000000
   19       -7.878678   1.000000
   20       -7.834484   1.000000
   21       -7.812684   1.000000
   22       -7.621409   1.000000
   23       -7.578063   1.000000
   24       -7.363772   1.000000
   25       -7.354775   1.000000
   26       -7.098382   1.000000
   27       -6.800914   1.000000
   28       -6.043740   1.000000
   29       -5.814696   1.000000
   30       -5.563983   1.000000
   31       -5.551795   1.000000
   32       -5.305064   1.000000
   33       -4.987838   1.000000
   34       -4.902374   1.000000
   35       -4.787974   1.000000
   36       -4.772320   1.000000
   37       -4.472649   1.000000
   38       -4.436978   1.000000
   39       -4.235113   1.000000
   40       -4.184111   1.000000
   41       -4.160600   1.000000
   42       -4.149751   1.000000
   43       -4.020414   1.000000
   44       -3.960570   1.000000
   45       -3.907370   1.000000
   46       -3.743362   1.000000
   47       -3.739415   1.000000
   48       -3.653164   1.000000
   49       -3.641165   1.000000
   50       -3.568988   1.000000
   51       -3.511065   1.000000
   52       -3.460171   1.000000
   53       -3.373606   1.000000
   54       -3.282059   1.000000
   55       -3.189941   1.000000
   56       -3.175245   1.000000
   57       -3.044424   1.000000
   58       -3.030382   1.000000
   59       -2.901142   1.000000
   60       -2.798819   1.000000
   61       -2.793890   1.000000
   62       -2.749174   1.000000
   63       -2.708430   1.000000
   64       -2.625777   1.000000
   65       -2.553852   1.000000
   66       -2.490115   1.000000
   67       -2.411948   1.000000
   68       -2.201162   1.000000
   69       -2.111515   1.000000
   70       -2.097715   1.000000
   71       -2.074827   1.000000
   72       -1.788743   1.000000
   73       -1.766370   1.000000
   74       -1.608623   1.000000
   75       -1.598526   1.000000
   76       -1.530874   1.000000
   77       -1.511081   1.000000
   78       -1.328102   1.000000
   79       -1.320985   1.000000
   80       -1.034971   1.000000
   81       -0.757150   1.000000
   82       -0.627995   1.000000
   83       -0.610782   1.000000
   84       -0.306827   1.000000
   85       -0.136144   1.000000
   86       -0.011897   1.000000
   87        0.086745   1.000000
   88        0.157822   1.000000
   89        0.193075   1.000000
   90        0.341086   1.000253
   91        0.503219   1.035305
   92        0.511105   1.033315
   93        0.857349  -0.002228
   94        0.957531  -0.000012
   95        0.958623  -0.000011
   96        1.021550  -0.000000
   97        1.094499  -0.000000
   98        1.239001  -0.000000
   99        1.248020  -0.000000
  100        1.455885  -0.000000
  101        1.469225  -0.000000
  102        1.512915  -0.000000
  103        1.541134  -0.000000
  104        1.545401  -0.000000
  105        1.603581  -0.000000
  106        1.662407  -0.000000
  107        1.861917  -0.000000
  108        1.904886  -0.000000
  109        1.966284  -0.000000
  110        2.022430  -0.000000
  111        2.046999  -0.000000
  112        2.051315  -0.000000
  113        2.092148  -0.000000
  114        2.133380  -0.000000
  115        2.253714  -0.000000
  116        2.274145  -0.000000
  117        2.291268  -0.000000
  118        2.294032  -0.000000
  119        2.334688  -0.000000
  120        2.380773  -0.000000

  0.4444444E+00  0.3795814E-15  0.1235432E-14  0.2020202E-01
    1      -12.869802   1.000000
    2      -12.665314   1.000000
    3      -11.565452   1.000000
    4      -11.418347   1.000000
    5      -10.535786   1.000000
    6      -10.533083   1.000000
    7      -10.293402   1.000000
    8      -10.291905   1.000000
    9       -9.981969   1.000000
   10       -9.929329   1.000000
   11       -9.871049   1.000000
   12       -9.792795   1.000000
   13       -9.452965   1.000000
   14       -9.444512   1.000000
   15       -8.800754   1.000000
   16       -8.797446   1.000000
   17       -8.128630   1.000000
   18       -8.127289   1.000000
   19       -7.841859   1.000000
   20       -7.838260   1.000000
   21       -7.737611   1.000000
   22       -7.662423   1.000000
   23       -7.510946   1.000000
   24       -7.408971   1.000000
   25       -7.405073   1.000000
   26       -7.330932   1.000000
   27       -6.526940   1.000000
   28       -6.192466   1.000000
   29       -5.828308   1.000000
   30       -5.570943   1.000000
   31       -5.541579   1.000000
   32       -5.536369   1.000000
   33       -4.800791   1.000000
   34       -4.757333   1.000000
   35       -4.683125   1.000000
   36       -4.648224   1.000000
   37       -4.521874   1.000000
   38       -4.450116   1.000000
   39       -4.237442   1.000000
   40       -4.234252   1.000000
   41       -4.167081   1.000000
   42       -4.079502   1.000000
   43       -4.011142   1.000000
   44       -3.993943   1.000000
   45       -3.812137   1.000000
   46       -3.784614   1.000000
   47       -3.765126   1.000000
   48       -3.697702   1.000000
   49       -3.538998   1.000000
   50       -3.505304   1.000000
   51       -3.497877   1.000000
   52       -3.464807   1.000000
   53       -3.382576   1.000000
   54       -3.307555   1.000000
   55       -3.154838   1.000000
   56       -3.119970   1.000000
   57       -3.027435   1.000000
   58       -2.975379   1.000000
   59       -2.908071   1.000000
   60       -2.833414   1.000000
   61       -2.822174   1.000000
   62       -2.779347   1.000000
   63       -2.729140   1.000000
   64       -2.706272   1.000000
   65       -2.508412   1.000000
   66       -2.467496   1.000000
   67       -2.415316   1.000000
   68       -2.314563   1.000000
   69       -2.155169   1.000000
   70       -2.135702   1.000000
   71       -1.947300   1.000000
   72       -1.854365   1.000000
   73       -1.784764   1.000000
   74       -1.672006   1.000000
   75       -1.631956   1.000000
   76       -1.626547   1.000000
   77       -1.397204   1.000000
   78       -1.342494   1.000000
   79       -1.328936   1.000000
   80       -1.225089   1.000000
   81       -0.702489   1.000000
   82       -0.692217   1.000000
   83       -0.534806   1.000000
   84       -0.349290   1.000000
   85       -0.096887   1.000000
   86       -0.032549   1.000000
   87        0.117849   1.000000
   88        0.129014   1.000000
   89        0.321818   1.000089
   90        0.338094   1.000216
   91        0.394829   1.002948
   92        0.603398   0.659306
   93        0.754334  -0.034299
   94        0.940528  -0.000033
   95        1.000135  -0.000001
   96        1.012553  -0.000000
   97        1.189217  -0.000000
   98        1.195695  -0.000000
   99        1.332125  -0.000000
  100        1.479523  -0.000000
  101        1.487161  -0.000000
  102        1.506434  -0.000000
  103        1.586822  -0.000000
  104        1.593069  -0.000000
  105        1.672129  -0.000000
  106        1.780826  -0.000000
  107        1.848581  -0.000000
  108        1.956188  -0.000000
  109        1.960367  -0.000000
  110        2.059720  -0.000000
  111        2.081325  -0.000000
  112        2.126544  -0.000000
  113        2.132604  -0.000000
  114        2.170544  -0.000000
  115        2.173120  -0.000000
  116        2.232067  -0.000000
  117        2.233944  -0.000000
  118        2.255457  -0.000000
  119        2.271936  -0.000000
  120        2.406335  -0.000000

  0.3742002E-15  0.9090909E-01  0.1339361E-14  0.2020202E-01
    1      -13.224938   1.000000
    2      -11.859338   1.000000
    3      -11.822098   1.000000
    4      -11.360384   1.000000
    5      -10.620677   1.000000
    6      -10.541587   1.000000
    7      -10.492695   1.000000
    8      -10.463084   1.000000
    9      -10.210072   1.000000
   10       -9.912450   1.000000
   11       -9.824108   1.000000
   12       -9.514630   1.000000
   13       -9.428782   1.000000
   14       -9.411602   1.000000
   15       -8.966124   1.000000
   16       -8.963632   1.000000
   17       -8.106890   1.000000
   18       -8.020828   1.000000
   19       -7.998359   1.000000
   20       -7.878180   1.000000
   21       -7.831371   1.000000
   22       -7.276745   1.000000
   23       -7.208380   1.000000
   24       -7.171393   1.000000
   25       -7.104890   1.000000
   26       -7.058227   1.000000
   27       -6.603807   1.000000
   28       -6.146856   1.000000
   29       -5.719641   1.000000
   30       -5.632178   1.000000
   31       -5.581677   1.000000
   32       -5.326923   1.000000
   33       -5.170401   1.000000
   34       -4.911330   1.000000
   35       -4.846920   1.000000
   36       -4.703098   1.000000
   37       -4.567342   1.000000
   38       -4.524015   1.000000
   39       -4.411276   1.000000
   40       -4.343138   1.000000
   41       -4.304003   1.000000
   42       -4.207522   1.000000
   43       -4.199185   1.000000
   44       -4.040336   1.000000
   45       -3.987397   1.000000
   46       -3.951325   1.000000
   47       -3.824832   1.000000
   48       -3.753939   1.000000
   49       -3.726872   1.000000
   50       -3.708608   1.000000
   51       -3.626758   1.000000
   52       -3.454025   1.000000
   53       -3.396885   1.000000
   54       -3.320284   1.000000
   55       -3.237642   1.000000
   56       -3.094522   1.000000
   57       -3.075744   1.000000
   58       -3.002424   1.000000
   59       -2.869978   1.000000
   60       -2.771959   1.000000
   61       -2.741708   1.000000
   62       -2.675228   1.000000
   63       -2.563162   1.000000
   64       -2.561763   1.000000
   65       -2.538696   1.000000
   66       -2.444098   1.000000
   67       -2.378558   1.000000
   68       -2.297206   1.000000
   69       -2.178570   1.000000
   70       -2.166465   1.000000
   71       -1.948558   1.000000
   72       -1.704281   1.000000
   73       -1.495708   1.000000
   74       -1.483661   1.000000
   75       -1.455722   1.000000
   76       -1.408925   1.000000
   77       -1.328451   1.000000
   78       -1.269790   1.000000
   79       -1.150905   1.000000
   80       -1.116879   1.000000
   81       -0.845602   1.000000
   82       -0.581914   1.000000
   83       -0.436320   1.000000
   84       -0.347357   1.000000
   85       -0.214831   1.000000
   86       -0.142490   1.000000
   87       -0.077040   1.000000
   88       -0.072842   1.000000
   89        0.325524   1.000110
   90        0.416636   1.006560
   91        0.520592   1.027097
   92        0.668285   0.154574
   93        0.714881  -0.015134
   94        0.727914  -0.029792
   95        0.825056  -0.007381
   96        0.949722  -0.000019
   97        1.028588  -0.000000
   98        1.121434  -0.000000
   99        1.182262  -0.000000
  100        1.285680  -0.000000
  101        1.379129  -0.000000
  102        1.433872  -0.000000
  103        1.465065  -0.000000
  104        1.491314  -0.000000
  105        1.619457  -0.000000
  106        1.759840  -0.000000
  107        1.794280  -0.000000
  108        1.830598  -0.000000
  109        1.882469  -0.000000
  110        1.899139  -0.000000
  111        1.963221  -0.000000
  112        1.999133  -0.000000
  113        2.041559  -0.000000
  114        2.070261  -0.000000
  115        2.169187  -0.000000
  116        2.221661  -0.000000
  117        2.222356  -0.000000
  118        2.363179  -0.000000
  119        2.393319  -0.000000
  120        2.433308  -0.000000

  0.1111111E+00  0.9090909E-01  0.1250028E-14  0.2020202E-01
    1      -13.179549   1.000000
    2      -12.014247   1.000000
    3      -11.820084   1.000000
    4      -11.258820   1.000000
    5      -10.608322   1.000000
    6      -10.599368   1.000000
    7      -10.505160   1.000000
    8      -10.434073   1.000000
    9      -10.156398   1.000000
   10       -9.905300   1.000000
   11       -9.797600   1.000000
   12       -9.526305   1.000000
   13       -9.474434   1.000000
   14       -9.441471   1.000000
   15       -8.935665   1.000000
   16       -8.893956   1.000000
   17       -8.136981   1.000000
   18       -8.009041   1.000000
   19       -7.962127   1.000000
   20       -7.959060   1.000000
   21       -7.818324   1.000000
   22       -7.424963   1.000000
   23       -7.235157   1.000000
   24       -7.115155   1.000000
   25       -7.066565   1.000000
   26       -7.042007   1.000000
   27       -6.728049   1.000000
   28       -6.159624   1.000000
   29       -5.727597   1.000000
   30       -5.567860   1.000000
   31       -5.402140   1.000000
   32       -5.312466   1.000000
   33       -5.196242   1.000000
   34       -5.046066   1.000000
   35       -4.872596   1.000000
   36       -4.737411   1.000000
   37       -4.540963   1.000000
   38       -4.478272   1.000000
   39       -4.374272   1.000000
   40       -4.336459   1.000000
   41       -4.294905   1.000000
   42       -4.200992   1.000000
   43       -4.088569   1.000000
   44       -3.983006   1.000000
   45       -3.960291   1.000000
   46       -3.871674   1.000000
   47       -3.803266   1.000000
   48       -3.760142   1.000000
   49       -3.737648   1.000000
   50       -3.664866   1.000000
   51       -3.618484   1.000000
   52       -3.466231   1.000000
   53       -3.371154   1.000000
   54       -3.317953   1.000000
   55       -3.169802   1.000000
   56       -3.167346   1.000000
   57       -3.093663   1.000000
   58       -2.978174   1.000000
   59       -2.912843   1.000000
   60       -2.798692   1.000000
   61       -2.767815   1.000000
   62       -2.722242   1.000000
   63       -2.603257   1.000000
   64       -2.556337   1.000000
   65       -2.545823   1.000000
   66       -2.422848   1.000000
   67       -2.371235   1.000000
   68       -2.236119   1.000000
   69       -2.193968   1.000000
   70       -2.185096   1.000000
   71       -2.002232   1.000000
   72       -1.670166   1.000000
   73       -1.603754   1.000000
   74       -1.564071   1.000000
   75       -1.499814   1.000000
   76       -1.474891   1.000000
   77       -1.328681   1.000000
   78       -1.319089   1.000000
   79       -1.137342   1.000000
   80       -1.026397   1.000000
   81       -0.877524   1.000000
   82       -0.567666   1.000000
   83       -0.537995   1.000000
   84       -0.388233   1.000000
   85       -0.212323   1.000000
   86       -0.133931   1.000000
   87        0.042560   1.000000
   88        0.065464   1.000000
   89        0.275789   1.000005
   90        0.335712   1.000191
   91        0.507658   1.034494
   92        0.660598   0.202795
   93        0.714157  -0.013985
   94        0.862515  -0.001796
   95        0.899427  -0.000322
   96        0.919893  -0.000109
   97        1.015349  -0.000000
   98        1.086794  -0.000000
   99        1.133354  -0.000000
  100        1.400971  -0.000000
  101        1.434120  -0.000000
  102        1.447956  -0.000000
  103        1.465968  -0.000000
  104        1.551352  -0.000000
  105        1.577654  -0.000000
  106        1.755410  -0.000000
  107        1.849480  -0.000000
  108        1.852112  -0.000000
  109        1.882168  -0.000000
  110        1.899403  -0.000000
  111        1.986183  -0.000000
  112        1.990882  -0.000000
  113        2.089541  -0.000000
  114        2.092226  -0.000000
  115        2.187250  -0.000000
  116        2.198177  -0.000000
  117        2.269905  -0.000000
  118        2.340889  -0.000000
  119        2.384227  -0.000000
  120        2.400872  -0.000000

  0.2222222E+00  0.9090909E-01  0.1327369E-14  0.2020202E-01
    1      -13.085553   1.000000
    2      -12.260677   1.000000
    3      -11.740045   1.000000
    4      -11.231309   1.000000
    5      -10.660923   1.000000
    6      -10.567177   1.000000
    7      -10.533381   1.000000
    8      -10.377714   1.000000
    9      -10.077109   1.000000
   10       -9.871062   1.000000
   11       -9.748219   1.000000
   12       -9.601261   1.000000
   13       -9.542451   1.000000
   14       -9.477783   1.000000
   15       -8.857668   1.000000
   16       -8.784293   1.000000
   17       -8.178503   1.000000
   18       -8.141224   1.000000
   19       -7.885857   1.000000
   20       -7.885231   1.000000
   21       -7.848698   1.000000
   22       -7.586767   1.000000
   23       -7.335577   1.000000
   24       -7.106465   1.000000
   25       -7.069075   1.000000
   26       -6.908308   1.000000
   27       -6.907818   1.000000
   28       -6.106710   1.000000
   29       -5.744053   1.000000
   30       -5.561058   1.000000
   31       -5.491114   1.000000
   32       -5.225950   1.000000
   33       -5.137181   1.000000
   34       -5.074184   1.000000
   35       -4.883534   1.000000
   36       -4.664893   1.000000
   37       -4.535106   1.000000
   38       -4.410738   1.000000
   39       -4.362408   1.000000
   40       -4.282538   1.000000
   41       -4.251365   1.000000
   42       -4.178785   1.000000
   43       -4.012337   1.000000
   44       -3.929363   1.000000
   45       -3.922919   1.000000
   46       -3.809946   1.000000
   47       -3.783434   1.000000
   48       -3.753284   1.000000