    3    3   60    1
  0.7818830E+01  0.2993786E-09  0.2993786E-09  0.3021976E-09  0.5000000E-15
   1.0000000000000000E-004
  CAR 
 Name                                    
     11    216     10

  0.3742002E-15  0.3742002E-15  0.3742002E-15  0.2962963E-03
    1       -5.697181   1.000000
    2        5.137331   1.000000
    3        5.137333   1.000000
    4        5.856888   1.000000
    5        6.550498   1.000000
    6        9.415793  -0.000000
    7        9.415794  -0.000000
    8       11.898398   0.000000
    9       11.898399   0.000000
   10       14.025436   0.000000

  0.6666667E-01  0.3745535E-15  0.3742002E-15  0.1777778E-02
    1       -5.611547   1.000000
    2        4.913486   1.000000
    3        5.136080   1.000000
    4        5.883635   1.000000
    5        6.425547   1.000000
    6        9.395943  -0.000000
    7        9.629955  -0.000000
    8       11.485848  -0.000000
    9       11.520047  -0.000000
   10       14.454589   0.000000

  0.1333333E+00  0.3749241E-15  0.3742002E-15  0.1777778E-02
    1       -5.357100   1.000000
    2        4.292696   1.000000
    3        5.125487   1.000000
    4        5.953829   1.000000
    5        6.143422   1.000000
    6        9.340259  -0.000015
    7       10.167347  -0.000000
    8       10.792365  -0.000000
    9       10.916565  -0.000000
   10       15.111924   0.000000

  0.2000000E+00  0.3588090E-15  0.3742002E-15  0.1777778E-02
    1       -4.941007   1.000000
    2        3.402288   1.000000
    3        5.091164   1.000000
    4        5.837533   1.000000
    5        6.009812   1.000000
    6        9.259499  -0.001167
    7       10.258053  -0.000000
    8       10.445512  -0.000000
    9       10.853588  -0.000000
   10       15.603053   0.000000

  0.2666667E+00  0.3600628E-15  0.3742002E-15  0.1777778E-02
    1       -4.374370   1.000000
    2        2.365005   1.000000
    3        5.025400   1.000000
    4        5.576306   1.000000
    5        5.978169   1.000000
    6        9.168505  -0.023609
    7       10.035903  -0.000000
    8       10.165008  -0.000000
    9       11.540182  -0.000000
   10       15.960086   0.000000

  0.3333333E+00  0.3889858E-15  0.3742002E-15  0.1777778E-02
    1       -3.671297   1.000000
    2        1.266576   1.000000
    3        4.939090   1.000000
    4        5.382991   1.000000
    5        5.849660   1.000000
    6        9.083177   0.028508
    7       10.046820  -0.000000
    8       10.121996  -0.000000
    9       12.078917   0.000000
   10       15.634243   0.000000

  0.4000000E+00  0.3842062E-15  0.3742002E-15  0.1777778E-02
    1       -2.848099   1.000000
    2        0.163342   1.000000
    3        4.858298   1.000000
    4        5.259717   1.000000
    5        5.696085   1.000000
    6        9.017592   0.433273
    7       10.026569  -0.000000
    8       10.369237  -0.000000
    9       12.360791   0.000000
   10       15.463313   0.000000

  0.4666667E+00  0.3576181E-15  0.3742002E-15  0.1777778E-02
    1       -1.924772   1.000000
    2       -0.904306   1.000000
    3        4.809944   1.000000
    4        5.200757   1.000000
    5        5.597942   1.000000
    6        8.982090   0.723921
    7       10.037230  -0.000000
    8       10.571375  -0.000000
    9       12.438254   0.000000
   10       15.479611   0.000000

  0.6666667E-01  0.6666667E-01  0.3742002E-15  0.1777778E-02
    1       -5.441484   1.000000
    2        4.518803   1.000000
    3        5.082371   1.000000
    4        5.952673   1.000000
    5        6.226769   1.000000
    6        9.347886  -0.000009
    7       10.011710  -0.000000
    8       11.001634  -0.000000
    9       11.040985  -0.000000
   10       15.087970   0.000000

  0.1333333E+00  0.6666667E-01  0.3742002E-15  0.3555556E-02
    1       -5.106152   1.000000
    2        3.810808   1.000000
    3        4.936264   1.000000
    4        5.948905   1.000000
    5        6.096374   1.000000
    6        9.251072  -0.001686
    7       10.414813  -0.000000
    8       10.585609  -0.000000
    9       10.639489  -0.000000
   10       15.680326   0.000000

  0.2000000E+00  0.6666667E-01  0.3742002E-15  0.3555556E-02
    1       -4.614650   1.000000
    2        2.883923   1.000000
    3        4.733278   1.000000
    4        5.687238   1.000000
    5        6.240582   1.000000
    6        9.122670  -0.033886
    7        9.983046  -0.000000
    8       10.324837  -0.000000
    9       11.359064  -0.000000
   10       16.061041   0.000000

  0.2666667E+00  0.6666667E-01  0.3742002E-15  0.3555556E-02
    1       -3.979479   1.000000
    2        1.838816   1.000000
    3        4.509233   1.000000
    4        5.483163   1.000000
    5        6.308214   1.000000
    6        8.982990   0.717196
    7        9.803163  -0.000000
    8       10.264139  -0.000000
    9       12.026928   0.000000
   10       15.792808   0.000000

  0.3333333E+00  0.6666667E-01  0.3742002E-15  0.3555556E-02
    1       -3.215829   1.000000
    2        0.749845   1.000000
    3        4.308029   1.000000
    4        5.346097   1.000000
    5        6.286395   1.000000
    6        8.855625   1.025813
    7        9.833788  -0.000000
    8       10.346184  -0.000000
    9       12.493166   0.000000
   10       15.476545   0.000000

  0.4000000E+00  0.6666667E-01  0.3742002E-15  0.3555556E-02
    1       -2.341162   1.000000
    2       -0.331333   1.000000
    3        4.169905   1.000000
    4        5.270371   1.000000
    5        6.232113   1.000000
    6        8.765370   1.001487
    7        9.932107  -0.000000
    8       10.479210  -0.000000
    9       12.695385   0.000000
   10       15.438547   0.000000

  0.4666667E+00  0.6666667E-01  0.3742002E-15  0.1777778E-02
    1       -1.428704   1.000000
    2       -1.314363   1.000000
    3        4.120938   1.000000
    4        5.246562   1.000000
    5        6.206430   1.000000
    6        8.732581   1.000317
    7        9.977539  -0.000000
    8       10.544895  -0.000000
    9       12.736648   0.000000
   10       15.469443   0.000000

  0.1333333E+00  0.1333333E+00  0.3742002E-15  0.1777778E-02
    1       -4.695283   1.000000
    2        3.162313   1.000000
    3        4.472137   1.000000
    4        5.738017   1.000000
    5        6.394538   1.000000
    6        9.063890   0.107659
    7        9.963830  -0.000000
    8       10.389846  -0.000000
    9       11.329901  -0.000000
   10       16.514550   0.000000

  0.2000000E+00  0.1333333E+00  0.3742002E-15  0.3555556E-02
    1       -4.134856   1.000000
    2        2.336721   1.000000
    3        3.966265   1.000000
    4        5.570574   1.000000
    5        6.711911   1.000000
    6        8.816117   1.009788
    7        9.608054  -0.000000
    8       10.363024  -0.000000
    9       12.097531   0.000000
   10       15.898963   0.000000

  0.2666667E+00  0.1333333E+00  0.3742002E-15  0.3555556E-02
    1       -3.438446   1.000000
    2        1.365959   1.000000
    3        3.556171   1.000000
    4        5.466643   1.000000
    5        6.938762   1.000000
    6        8.552790   1.000000
    7        9.479854  -0.000000
    8       10.409144  -0.000000
    9       12.789723   0.000000
   10       15.479735   0.000000

  0.3333333E+00  0.1333333E+00  0.3742002E-15  0.3555556E-02
    1       -2.622363   1.000000
    2        0.327102   1.000000
    3        3.278674   1.000000
    4        5.419075   1.000000
    5        7.028827   1.000000
    6        8.327345   1.000000
    7        9.590368  -0.000000
    8       10.430305  -0.000000
    9       13.237907   0.000000
   10       15.346223   0.000000

  0.4000000E+00  0.1333333E+00  0.3742002E-15  0.3555556E-02
    1       -1.705890   1.000000
    2       -0.711938   1.000000
    3        3.139249   1.000000
    4        5.405374   1.000000
    5        7.039613   1.000000
    6        8.195422   1.000000
    7        9.776654  -0.000000
    8       10.390522  -0.000000
    9       13.402822   0.000000
   10       15.400408   0.000000

  0.2000000E+00  0.2000000E+00  0.3742002E-15  0.1777778E-02
    1       -3.512959   1.000000
    2        1.726687   1.000000
    3        3.143874   1.000000
    4        5.525626   1.000000
    5        7.216655   1.000000
    6        8.412683   1.000000
    7        9.298291  -0.000174
    8       10.435839  -0.000000
    9       12.927700   0.000000
   10       15.479153   0.000000

  0.2666667E+00  0.2000000E+00  0.3742002E-15  0.3555556E-02
    1       -2.763824   1.000000
    2        0.950334   1.000000
    3        2.525705   1.000000
    4        5.555098   1.000000
    5        7.618524   1.000000
    6        7.999290   1.000000
    7        9.197403  -0.011644
    8       10.424020  -0.000000
    9       13.671813   0.000000
   10       15.237893   0.000000

  0.3333333E+00  0.2000000E+00  0.3742002E-15  0.3555556E-02
    1       -1.906839   1.000000
    2        0.014240   1.000000
    3        2.195470   1.000000
    4        5.623985   1.000000
    5        7.674354   1.000000
    6        7.800717   1.000000
    7        9.383716  -0.000001
    8       10.269264  -0.000000
    9       14.099817   0.000000
   10       15.251372   0.000000

  0.4000000E+00  0.2000000E+00  0.3742002E-15  0.1777778E-02
    1       -1.017038   1.000000
    2       -0.914733   1.000000
    3        2.094932   1.000000
    4        5.662029   1.000000
    5        7.546642   1.000000
    6        7.834132   1.000000
    7        9.592333  -0.000000
    8       10.104744  -0.000000
    9       14.197809   0.000000
   10       15.335362   0.000000

  0.2666667E+00  0.2666667E+00  0.3742002E-15  0.1777778E-02
    1       -1.974291   1.000000
    2        0.505302   1.000000
    3        1.629278   1.000000
    4        5.745554   1.000000
    5        7.442003   1.000000
    6        8.246732   1.000000
    7        9.047886   0.201352
    8       10.232693  -0.000000
    9       14.470526   0.000000
   10       15.102347   0.000000

  0.3333333E+00  0.2666667E+00  0.3742002E-15  0.3555556E-02
    1       -1.106632   1.000000
    2       -0.189014   1.000000
    3        1.170430   1.000000
    4        5.966511   1.000000
    5        7.021652   1.000000
    6        8.556359   1.000000
    7        9.246762  -0.002022
    8        9.864872  -0.000000
    9       14.829578   0.000000
   10       15.193201   0.000000

  0.3333333E+00  0.3333333E+00  0.3742002E-15  0.5925926E-03
    1       -0.413564   1.000000
    2       -0.413563   1.000000
    3        0.556257   1.000000
    4        6.439292   1.000000
    5        6.439293   1.000000
    6        9.187391  -0.015327
    7        9.187392  -0.015326
    8        9.357501  -0.000005
    9       15.151355   0.000000
   10       15.151356   0.000000

  0.3742002E-15  0.3742002E-15  0.6666667E-01  0.5925926E-03
    1       -5.632013   1.000000
    2        5.191207   1.000000
    3        5.191208   1.000000
    4        5.282434   1.000000
    5        7.020184   1.000000
    6        9.263270  -0.000985
    7        9.263270  -0.000985
    8       11.790900   0.000000
    9       11.790901   0.000000
   10       14.261171   0.000000

  0.6666667E-01  0.3745535E-15  0.6666667E-01  0.3555556E-02
    1       -5.547064   1.000000
    2        4.962278   1.000000
    3        5.184302   1.000000
    4        5.297873   1.000000
    5        6.888447   1.000000
    6        9.234367  -0.003326
    7        9.478802  -0.000000
    8       11.469894  -0.000000
    9       11.505091  -0.000000
   10       14.607314   0.000000

  0.1333333E+00  0.3749241E-15  0.6666667E-01  0.3555556E-02
    1       -5.294704   1.000000
    2        4.330331   1.000000
    3        5.156405   1.000000
    4        5.326947   1.000000
    5        6.628160   1.000000
    6        9.163384  -0.025974
    7        9.933481  -0.000000
    8       10.954669  -0.000000
    9       11.015560  -0.000000
   10       15.170721   0.000000

  0.2000000E+00  0.3588090E-15  0.6666667E-01  0.3555556E-02
    1       -4.882115   1.000000
    2        3.427591   1.000000
    3        5.093718   1.000000
    4        5.330341   1.000000
    5        6.378358   1.000000
    6        9.092233   0.003705
    7       10.075318  -0.000000
    8       10.611295  -0.000000
    9       10.997072  -0.000000
   10       15.590118   0.000000

  0.2666667E+00  0.3600628E-15  0.6666667E-01  0.3555556E-02
    1       -4.320383   1.000000
    2        2.382114   1.000000
    3        4.993475   1.000000
    4        5.291930   1.000000
    5        6.148121   1.000000
    6        9.062248   0.116122
    7        9.974240  -0.000000
    8       10.333728  -0.000000
    9       11.544589  -0.000000
   10       15.706658   0.000000

  0.3333333E+00  0.3889858E-15  0.6666667E-01  0.3555556E-02
    1       -3.623455   1.000000
    2        1.281300   1.000000
    3        4.874786   1.000000
    4        5.236590   1.000000
    5        5.919035   1.000000
    6        9.078503   0.044302
    7       10.068849  -0.000000
    8       10.164823  -0.000000
    9       12.032685   0.000000
   10       15.340733   0.000000

  0.4000000E+00  0.3842062E-15  0.6666667E-01  0.3555556E-02
    1       -2.807150   1.000000
    2        0.180247   1.000000
    3        4.770382   1.000000
    4        5.193528   1.000000
    5        5.720516   1.000000
    6        9.111852  -0.027237
    7       10.080388  -0.000000
    8       10.291293  -0.000000
    9       12.316462   0.000000
   10       15.069541   0.000000

  0.4666667E+00  0.3576181E-15  0.6666667E-01  0.3555556E-02
    1       -1.889138   1.000000
    2       -0.884065   1.000000
    3        4.709956   1.000000
    4        5.173177   1.000000
    5        5.604097   1.000000
    6        9.133535  -0.035429
    7       10.051222  -0.000000
    8       10.466557  -0.000000
    9       12.424639   0.000000
   10       14.950343   0.000000

  0.6666667E-01  0.6666667E-01  0.6666667E-01  0.3555556E-02
    1       -5.378399   1.000000
    2        4.560453   1.000000
    3        5.114856   1.000000
    4        5.330816   1.000000
    5        6.717237   1.000000
    6        9.157713  -0.028519
    7        9.837689  -0.000000
    8       11.067554  -0.000000
    9       11.142185  -0.000000
   10       15.169729   0.000000

  0.1333333E+00  0.6666667E-01  0.6666667E-01  0.7111111E-02
    1       -5.045871   1.000000
    2        3.842125   1.000000
    3        4.950512   1.000000
    4        5.351504   1.000000
    5        6.566821   1.000000
    6        9.019745   0.415294
    7       10.213104  -0.000000
    8       10.637308  -0.000000
    9       10.929324  -0.000000
   10       15.706825   0.000000

  0.2000000E+00  0.6666667E-01  0.6666667E-01  0.7111111E-02
    1       -4.558596   1.000000
    2        2.905043   1.000000
    3        4.726016   1.000000
    4        5.329184   1.000000
    5        6.486887   1.000000
    6        8.893929   1.034696
    7       10.092204  -0.000000
    8       10.388396  -0.000000
    9       11.378023  -0.000000
   10       15.941332   0.000000

  0.2666667E+00  0.6666667E-01  0.6666667E-01  0.7111111E-02
    1       -3.929032   1.000000
    2        1.854243   1.000000
    3        4.484610   1.000000
    4        5.283895   1.000000
    5        6.400923   1.000000
    6        8.846475   1.021591
    7        9.980422  -0.000000
    8       10.271822  -0.000000
    9       11.971541   0.000000
   10       15.550733   0.000000

  0.3333333E+00  0.6666667E-01  0.6666667E-01  0.7111111E-02
    1       -3.172107   1.000000
    2        0.765133   1.000000
    3        4.274019   1.000000
    4        5.245323   1.000000
    5        6.276173   1.000000
    6        8.870658   1.032124
    7        9.959409  -0.000000
    8       10.308544  -0.000000
    9       12.413273   0.000000
   10       15.181949   0.000000

  0.4000000E+00  0.6666667E-01  0.6666667E-01  0.7111111E-02
    1       -2.304520   1.000000
    2       -0.312323   1.000000
    3        4.132146   1.000000
    4        5.225392   1.000000
    5        6.161980   1.000000
    6        8.900315   1.032315
    7        9.977876  -0.000000
    8       10.422102  -0.000000
    9       12.637473   0.000000
   10       15.005090   0.000000

  0.4666667E+00  0.6666667E-01  0.6666667E-01  0.3555556E-02
    1       -1.365006   1.000000
    2       -1.323380   1.000000
    3        4.082286   1.000000
    4        5.220251   1.000000
    5        6.116428   1.000000
    6        8.909099   1.025720
    7        9.992370  -0.000000
    8       10.480154  -0.000000
    9       12.698838   0.000000
   10       14.955370   0.000000

  0.1333333E+00  0.1333333E+00  0.6666667E-01  0.3555556E-02
    1       -4.638558   1.000000
    2        3.187870   1.000000
    3        4.469373   1.000000
    4        5.346025   1.000000
    5        6.705664   1.000000
    6        8.741677   1.000499
    7       10.242556  -0.000000
    8       10.333461  -0.000000
    9       11.345354  -0.000000
   10       16.325629   0.000000

  0.2000000E+00  0.1333333E+00  0.6666667E-01  0.7111111E-02
    1       -4.083145   1.000000
    2        2.355350   1.000000
    3        3.953659   1.000000
    4        5.326872   1.000000
    5        6.904764   1.000000
    6        8.483111   1.000000
    7        9.940900  -0.000000
    8       10.351129  -0.000000
    9       12.020245   0.000000
   10       15.754384   0.000000

  0.2666667E+00  0.1333333E+00  0.6666667E-01  0.7111111E-02
    1       -3.393140   1.000000
    2        1.380485   1.000000
    3        3.544567   1.000000
    4        5.322992   1.000000
    5        6.974890   1.000000
    6        8.390377   1.000000
    7        9.758908  -0.000000
    8       10.392849  -0.000000
    9       12.662594   0.000000
   10       15.308088   0.000000

  0.3333333E+00  0.1333333E+00  0.6666667E-01  0.7111111E-02
    1       -2.584612   1.000000
    2        0.343294   1.000000
    3        3.270549   1.000000
    4        5.341160   1.000000
    5        6.887715   1.000000
    6        8.438349   1.000000
    7        9.736483  -0.000000
    8       10.410926  -0.000000
    9       13.112891   0.000000
   10       15.069883   0.000000

  0.4000000E+00  0.1333333E+00  0.6666667E-01  0.7111111E-02
    1       -1.676394   1.000000
    2       -0.689786   1.000000
    3        3.133345   1.000000
    4        5.363083   1.000000
    5        6.792075   1.000000
    6        8.475797   1.000000
    7        9.823718  -0.000000
    8       10.380899  -0.000000
    9       13.314580   0.000000
   10       14.999557   0.000000

  0.2000000E+00  0.2000000E+00  0.6666667E-01  0.3555556E-02
    1       -3.467139   1.000000
    2        1.741875   1.000000
    3        3.136721   1.000000
    4        5.360113   1.000000
    5        7.389252   1.000000
    6        8.039105   1.000000
    7        9.670557  -0.000000
    8       10.425373  -0.000000
    9       12.778758   0.000000
   10       15.369769   0.000000

  0.2666667E+00  0.2000000E+00  0.6666667E-01  0.7111111E-02
    1       -2.725459   1.000000
    2        0.962605   1.000000
    3        2.530756   1.000000
    4        5.442897   1.000000
    5        7.471891   1.000000
    6        7.996327   1.000000
    7        9.494544  -0.000000
    8       10.415543  -0.000000
    9       13.481966   0.000000
   10       15.104402   0.000000

  0.3333333E+00  0.2000000E+00  0.6666667E-01  0.7111111E-02
    1       -1.877707   1.000000
    2        0.030693   1.000000
    3        2.208228   1.000000
    4        5.549787   1.000000
    5        7.169980   1.000000
    6        8.272814   1.000000
    7        9.526953  -0.000000
    8       10.275476  -0.000000
    9       13.946731   0.000000
   10       15.009573   0.000000

  0.4000000E+00  0.2000000E+00  0.6666667E-01  0.3555556E-02
    1       -1.022678   1.000000
    2       -0.864596   1.000000
    3        2.109854   1.000000
    4        5.604858   1.000000
    5        7.039552   1.000000
    6        8.356159   1.000000
    7        9.652232  -0.000000
    8       10.135144  -0.000000
    9       14.087764   0.000000
   10       15.015679   0.000000

  0.2666667E+00  0.2666667E+00  0.6666667E-01  0.3555556E-02
    1       -1.945098   1.000000
    2        0.512541   1.000000
    3        1.654720   1.000000
    4        5.648009   1.000000
    5        7.190262   1.000000
    6        8.367731   1.000000
    7        9.316715  -0.000063
    8       10.239963  -0.000000
    9       14.240057   0.000000
   10       14.983207   0.000000

  0.3333333E+00  0.2666667E+00  0.6666667E-01  0.7111111E-02
    1       -1.091105   1.000000
    2       -0.175521   1.000000
    3        1.206653   1.000000
    4        5.877301   1.000000
    5        6.806313   1.000000
    6        8.744380   1.000569
    7        9.383818  -0.000001
    8        9.902765  -0.000000
    9       14.668261   0.000000
   10       14.984214   0.000000

  0.3333333E+00  0.3333333E+00  0.6666667E-01  0.1185185E-02
    1       -0.413367   1.000000
    2       -0.413366   1.000000
    3        0.623368   1.000000
    4        6.311239   1.000000
    5        6.311240   1.000000
    6        9.331305  -0.000026
    7        9.331305  -0.000026
    8        9.389571  -0.000001
    9       14.973348   0.000000
   10       14.973349   0.000000

  0.3742002E-15  0.3742002E-15  0.1333333E+00  0.5925926E-03
    1       -5.439738   1.000000
    2        4.379148   1.000000
    3        5.352231   1.000000
    4        5.352232   1.000000
    5        7.638216   1.000000
    6        8.890272   1.035307
    7        8.890273   1.035307
    8       11.480914  -0.000000
    9       11.480916  -0.000000
   10       14.879092   0.000000

  0.6666667E-01  0.3745535E-15  0.1333333E+00  0.3555556E-02
    1       -5.356931   1.000000
    2        4.411008   1.000000
    3        5.107076   1.000000
    4        5.326660   1.000000
    5        7.421987   1.000000
    6        8.854501   1.025296
    7        9.151244  -0.031186
    8       11.323525  -0.000000
    9       11.371060  -0.000000
   10       15.062795   0.000000

  0.1333333E+00  0.3749241E-15  0.1333333E+00  0.3555556E-02
    1       -5.111004   1.000000
    2        4.419604   1.000000
    3        4.517137   1.000000
    4        5.243194   1.000000
    5        7.056967   1.000000
    6        8.792192   1.004365
    7        9.565012  -0.000000
    8       11.093794  -0.000000
    9       11.140238  -0.000000
   10       15.376808   0.000000

  0.2000000E+00  0.3588090E-15  0.1333333E+00  0.3555556E-02
    1       -4.709274   1.000000
    2        3.494217   1.000000
    3        4.629699   1.000000
    4        5.095235   1.000000
    5        6.701873   1.000000
    6        8.790215   1.004056
    7        9.748909  -0.000000
    8       10.898528  -0.000000
    9       11.200108  -0.000000
   10       15.508420   0.000000

  0.2666667E+00  0.3600628E-15  0.1333333E+00  0.3555556E-02
    1       -4.162780   1.000000
    2        2.429217   1.000000
    3        4.768743   1.000000
    4        4.900679   1.000000
    5        6.354743   1.000000
    6        8.896217   1.034047
    7        9.786811  -0.000000
    8       10.673040  -0.000000
    9       11.600759  -0.000000
   10       15.225268   0.000000

  0.3333333E+00  0.3889858E-15  0.1333333E+00  0.3555556E-02
    1       -3.485146   1.000000
    2        1.325545   1.000000
    3        4.701736   1.000000
    4        4.902473   1.000000
    5        6.027820   1.000000
    6        9.094840  -0.002096
    7        9.901526  -0.000000
    8       10.461606  -0.000000
    9       11.997857   0.000000
   10       14.779393   0.000000

  0.4000000E+00  0.3842062E-15  0.1333333E+00  0.3555556E-02
    1       -2.691531   1.000000
    2        0.234781   1.000000
    3        4.542901   1.000000
    4        5.017728   1.000000
    5        5.760691   1.000000
    6        9.333100  -0.000024
    7       10.077234  -0.000000
    8       10.262407  -0.000000
    9       12.271110   0.000000
   10       14.420039   0.000000

  0.4666667E+00  0.3576181E-15  0.1333333E+00  0.3555556E-02
    1       -1.799874   1.000000
    2       -0.808589   1.000000
    3        4.455770   1.000000
    4        5.095559   1.000000
    5        5.600203   1.000000
    6        9.529544  -0.000000
    7       10.102089  -0.000000
    8       10.202735  -0.000000
    9       12.418940   0.000000
   10       14.207196   0.000000

  0.6666667E-01  0.6666667E-01  0.1333333E+00  0.3555556E-02
    1       -5.192557   1.000000
    2        4.470316   1.000000
    3        4.682260   1.000000
    4        5.222942   1.000000
    5        7.193602   1.000000
    6        8.741650   1.000498
    7        9.518001  -0.000000
    8       11.094620  -0.000000
    9       11.236354  -0.000000
   10       15.439565   0.000000

  0.1333333E+00  0.6666667E-01  0.1333333E+00  0.7111111E-02
    1       -4.868722   1.000000
    2        3.929549   1.000000
    3        4.575436   1.000000
    4        4.989449   1.000000
    5        6.995339   1.000000
    6        8.581801   1.000000
    7        9.875386  -0.000000
    8       10.865766  -0.000000
    9       11.177400  -0.000000
   10       15.780632   0.000000

  0.2000000E+00  0.6666667E-01  0.1333333E+00  0.7111111E-02
    1       -4.394550   1.000000
    2        2.962794   1.000000
    3        4.658358   1.000000
    4        4.747946   1.000000
    5        6.788487   1.000000
    6        8.542883   1.000000
    7        9.973279  -0.000000
    8       10.698108  -0.000000
    9       11.456027  -0.000000
   10       15.584816   0.000000

  0.2666667E+00  0.6666667E-01  0.1333333E+00  0.7111111E-02
    1       -3.782445   1.000000
    2        1.898637   1.000000
    3        4.403785   1.000000
    4        4.857224   1.000000
    5        6.513404   1.000000
    6        8.686190   1.000024
    7       10.026621  -0.000000
    8       10.512330  -0.000000
    9       11.908113   0.000000
   10       15.076282   0.000000

  0.3333333E+00  0.6666667E-01  0.1333333E+00  0.7111111E-02
    1       -3.046873   1.000000
    2        0.812594   1.000000
    3        4.170937   1.000000
    4        4.989218   1.000000
    5        6.223115   1.000000
    6        8.946226   0.934910
    7       10.147046  -0.000000
    8       10.316547  -0.000000
    9       12.291921   0.000000
   10       14.630864   0.000000

  0.4000000E+00  0.6666667E-01  0.1333333E+00  0.7111111E-02
    1       -2.204168   1.000000
    2       -0.249117   1.000000
    3        4.018414   1.000000
    4        5.099220   1.000000
    5        5.996972   1.000000
    6        9.212260  -0.007349
    7       10.128412  -0.000000
    8       10.278070  -0.000000
    9       12.540164   0.000000
   10       14.329205   0.000000

  0.4666667E+00  0.6666667E-01  0.1333333E+00  0.3555556E-02
    1       -1.349089   1.000000
    2       -1.178443   1.000000
    3        3.965510   1.000000
    4        5.147063   1.000000
    5        5.907470   1.000000
    6        9.340817  -0.000015
    7       10.034310  -0.000000
    8       10.331425  -0.000000
    9       12.633002   0.000000
   10       14.212614   0.000000

  0.1333333E+00  0.1333333E+00  0.1333333E+00  0.3555556E-02
    1       -4.472396   1.000000
    2        3.261360   1.000000
    3        4.420421   1.000000
    4        4.715083   1.000000
    5        7.158876   1.000000
    6        8.203931   1.000000
    7       10.164721  -0.000000
    8       10.626093  -0.000000
    9       11.422045  -0.000000
   10       15.968333   0.000000

  0.2000000E+00  0.1333333E+00  0.1333333E+00  0.7111111E-02
    1       -3.932531   1.000000
    2        2.408329   1.000000
    3        3.903431   1.000000
    4        4.838785   1.000000
    5        7.203288   1.000000
    6        8.045755   1.000000
    7       10.246342  -0.000000
    8       10.463248  -0.000000
    9       11.897315   0.000000
   10       15.438819   0.000000

  0.2666667E+00  0.1333333E+00  0.1333333E+00  0.7111111E-02
    1       -3.262498   1.000000
    2        1.423341   1.000000
    3        3.506484   1.000000
    4        4.986211   1.000000
    5        6.902774   1.000000
    6        8.321815   1.000000
    7       10.234777  -0.000000
    8       10.351761  -0.000000
    9       12.422320   0.000000
   10       14.936163   0.000000

  0.3333333E+00  0.1333333E+00  0.1333333E+00  0.7111111E-02
    1       -2.478247   1.000000
    2        0.394093   1.000000
    3        3.243861   1.000000
    4        5.135720   1.000000
    5        6.563843   1.000000
    6        8.707655   1.000083
    7       10.095535  -0.000000
    8       10.356926  -0.000000
    9       12.854488   0.000000
   10       14.559597   0.000000

  0.4000000E+00  0.1333333E+00  0.1333333E+00  0.7111111E-02
    1       -1.603105   1.000000
    2       -0.612350   1.000000
    3        3.112583   1.000000
    4        5.246712   1.000000
    5        6.345785   1.000000
    6        8.993713   0.633234
    7        9.958396  -0.000000
    8       10.372525  -0.000000
    9       13.116823   0.000000
   10       14.334115   0.000000

  0.2000000E+00  0.2000000E+00  0.1333333E+00  0.3555556E-02
    1       -3.334743   1.000000
    2        1.785264   1.000000
    3        3.112661   1.000000
    4        4.987995   1.000000
    5        7.451876   1.000000
    6        7.784211   1.000000
    7       10.239295  -0.000000
    8       10.384626  -0.000000
    9       12.484606   0.000000
   10       15.106795   0.000000

  0.2666667E+00  0.2000000E+00  0.1333333E+00  0.7111111E-02
    1       -2.616267   1.000000
    2        0.998507   1.000000
    3        2.545449   1.000000
    4        5.168417   1.000000
    5        6.995045   1.000000
    6        8.289097   1.000000
    7       10.045971  -0.000000
    8       10.389155  -0.000000
    9       13.087512   0.000000
   10       14.793778   0.000000
