   54   54    1    1
  0.1409106E+02  0.6088057E-09  0.6088057E-09  0.2372246E-08  0.5000000E-15
   1.0000000000000000E-004
  CAR 
 Name                                    
    200     25    132

  0.3742002E-15  0.3742002E-15  0.1262379E-14  0.1234568E-01
    1      -11.872294   1.000000
    2      -11.292922   1.000000
    3      -10.453727   1.000000
    4       -9.083774   1.000000
    5       -8.982308   1.000000
    6       -8.633067   1.000000
    7       -8.604834   1.000000
    8       -8.409944   1.000000
    9       -8.283376   1.000000
   10       -8.162327   1.000000
   11       -8.115107   1.000000
   12       -8.052170   1.000000
   13       -8.005924   1.000000
   14       -7.988967   1.000000
   15       -7.727186   1.000000
   16       -7.674426   1.000000
   17       -7.670924   1.000000
   18       -7.418140   1.000000
   19       -7.339235   1.000000
   20       -7.211251   1.000000
   21       -6.515662   1.000000
   22       -6.409704   1.000000
   23       -6.357905   1.000000
   24       -6.314071   1.000000
   25       -6.231760   1.000000
   26       -6.221656   1.000000
   27       -6.092893   1.000000
   28       -5.608951   1.000000
   29       -5.546722   1.000000
   30       -5.478598   1.000000
   31       -5.042480   1.000000
   32       -4.948522   1.000000
   33       -4.906719   1.000000
   34       -4.626598   1.000000
   35       -4.485971   1.000000
   36       -4.469780   1.000000
   37       -4.287607   1.000000
   38       -3.936665   1.000000
   39       -3.444598   1.000000
   40       -3.382143   1.000000
   41       -3.237357   1.000000
   42       -3.144319   1.000000
   43       -2.975418   1.000000
   44       -2.914976   1.000000
   45       -2.861437   1.000000
   46       -2.706242   1.000000
   47       -2.630973   1.000000
   48       -2.566874   1.000000
   49       -2.505959   1.000000
   50       -2.462015   1.000000
   51       -2.252365   1.000000
   52       -2.222875   1.000000
   53       -2.182990   1.000000
   54       -2.135510   1.000000
   55       -2.127963   1.000000
   56       -2.095916   1.000000
   57       -1.983316   1.000000
   58       -1.962486   1.000000
   59       -1.789533   1.000000
   60       -1.743408   1.000000
   61       -1.637060   1.000000
   62       -1.617847   1.000000
   63       -1.446219   1.000000
   64       -1.422546   1.000000
   65       -1.418101   1.000000
   66       -1.108617   1.000000
   67       -1.094976   1.000000
   68       -1.086766   1.000000
   69       -0.982437   1.000000
   70       -0.966880   1.000000
   71       -0.964645   1.000000
   72       -0.928162   1.000000
   73       -0.693668   1.000000
   74       -0.542182   1.000000
   75       -0.402969   1.000000
   76       -0.400800   1.000000
   77       -0.288937   1.000000
   78       -0.092594   1.000000
   79        0.018737   1.000000
   80        0.021063   1.000000
   81        0.263579   1.000000
   82        0.419703   1.000000
   83        0.772062   1.000000
   84        0.797746   1.000000
   85        0.818418   1.000000
   86        0.898875   1.000000
   87        1.003395   1.000000
   88        1.040176   1.000000
   89        1.155346   1.000000
   90        1.219707   1.000000
   91        1.275378   1.000000
   92        1.282760   1.000000
   93        1.297742   1.000000
   94        1.523726   1.000000
   95        1.746956   1.000087
   96        1.816329   1.000538
   97        1.854963   1.001313
   98        1.875518   1.002039
   99        2.345789   0.514785
  100        2.412465   0.246874
  101        2.436671   0.166480
  102        2.702899  -0.015688
  103        2.909991  -0.000269
  104        2.931905  -0.000151
  105        2.956838  -0.000075
  106        3.116694  -0.000000
  107        3.122512  -0.000000
  108        3.200991  -0.000000
  109        3.231838  -0.000000
  110        3.283796  -0.000000
  111        3.315486  -0.000000
  112        3.413423  -0.000000
  113        3.485040  -0.000000
  114        3.523004  -0.000000
  115        3.586036  -0.000000
  116        3.601001  -0.000000
  117        3.665602  -0.000000
  118        3.676012  -0.000000
  119        3.791133  -0.000000
  120        3.892708  -0.000000
  121        3.928421  -0.000000
  122        3.982681  -0.000000
  123        4.022786  -0.000000
  124        4.122448  -0.000000
  125        4.383202  -0.000000
  126        4.685778  -0.000000
  127        5.136821  -0.000000
  128        5.514517  -0.000000
  129        5.722019  -0.000000
  130        5.978422  -0.000000
  131        6.343092  -0.000000
  132        6.467682  -0.000000

  0.1111111E+00  0.3857958E-15  0.1262379E-14  0.4938272E-01
    1      -11.814900   1.000000
    2      -11.240453   1.000000
    3      -10.414219   1.000000
    4       -9.046028   1.000000
    5       -9.002750   1.000000
    6       -8.752230   1.000000
    7       -8.623393   1.000000
    8       -8.601442   1.000000
    9       -8.434807   1.000000
   10       -8.356135   1.000000
   11       -8.328349   1.000000
   12       -8.275452   1.000000
   13       -8.154743   1.000000
   14       -8.101476   1.000000
   15       -7.536901   1.000000
   16       -7.459916   1.000000
   17       -7.267371   1.000000
   18       -7.250414   1.000000
   19       -7.165307   1.000000
   20       -6.956020   1.000000
   21       -6.559146   1.000000
   22       -6.503899   1.000000
   23       -6.362209   1.000000
   24       -6.294587   1.000000
   25       -6.193710   1.000000
   26       -6.114432   1.000000
   27       -6.012765   1.000000
   28       -5.649525   1.000000
   29       -5.578310   1.000000
   30       -5.518240   1.000000
   31       -4.931120   1.000000
   32       -4.895277   1.000000
   33       -4.712547   1.000000
   34       -4.535001   1.000000
   35       -4.415348   1.000000
   36       -4.362867   1.000000
   37       -4.106527   1.000000
   38       -3.893808   1.000000
   39       -3.480347   1.000000
   40       -3.433104   1.000000
   41       -3.224848   1.000000
   42       -3.149043   1.000000
   43       -3.057531   1.000000
   44       -2.939524   1.000000
   45       -2.909956   1.000000
   46       -2.884951   1.000000
   47       -2.748327   1.000000
   48       -2.650262   1.000000
   49       -2.491165   1.000000
   50       -2.421333   1.000000
   51       -2.275586   1.000000
   52       -2.226101   1.000000
   53       -2.159019   1.000000
   54       -2.116119   1.000000
   55       -2.100878   1.000000
   56       -2.067493   1.000000
   57       -1.984496   1.000000
   58       -1.957794   1.000000
   59       -1.795000   1.000000
   60       -1.752181   1.000000
   61       -1.678722   1.000000
   62       -1.661533   1.000000
   63       -1.546487   1.000000
   64       -1.456417   1.000000
   65       -1.439210   1.000000
   66       -1.312503   1.000000
   67       -1.163549   1.000000
   68       -1.109656   1.000000
   69       -1.018933   1.000000
   70       -1.000003   1.000000
   71       -0.931041   1.000000
   72       -0.874648   1.000000
   73       -0.671606   1.000000
   74       -0.546945   1.000000
   75       -0.488975   1.000000
   76       -0.447281   1.000000
   77       -0.275115   1.000000
   78       -0.237582   1.000000
   79       -0.146412   1.000000
   80        0.067885   1.000000
   81        0.156111   1.000000
   82        0.231858   1.000000
   83        0.547862   1.000000
   84        0.596409   1.000000
   85        0.711593   1.000000
   86        0.908140   1.000000
   87        1.007998   1.000000
   88        1.074118   1.000000
   89        1.125205   1.000000
   90        1.158090   1.000000
   91        1.206661   1.000000
   92        1.336871   1.000000
   93        1.425767   1.000000
   94        1.483359   1.000000
   95        1.705128   1.000026
   96        1.818695   1.000569
   97        2.088790   1.034622
   98        2.149134   1.025205
   99        2.301283   0.696768
  100        2.440988   0.153528
  101        2.486434   0.045200
  102        2.565560  -0.031642
  103        2.803402  -0.003033
  104        2.847661  -0.001201
  105        2.937686  -0.000129
  106        3.122347  -0.000000
  107        3.197843  -0.000000
  108        3.237383  -0.000000
  109        3.284911  -0.000000
  110        3.315273  -0.000000
  111        3.346210  -0.000000
  112        3.392815  -0.000000
  113        3.426031  -0.000000
  114        3.457210  -0.000000
  115        3.547494  -0.000000
  116        3.564455  -0.000000
  117        3.594534  -0.000000
  118        3.643022  -0.000000
  119        3.671656  -0.000000
  120        3.710336  -0.000000
  121        3.779526  -0.000000
  122        3.876859  -0.000000
  123        3.938488  -0.000000
  124        3.972086  -0.000000
  125        4.000816  -0.000000
  126        4.132585  -0.000000
  127        4.266339  -0.000000
  128        4.860423  -0.000000
  129        5.302750  -0.000000
  130        5.749636  -0.000000
  131        6.022780  -0.000000
  132        6.193669  -0.000000

  0.2222222E+00  0.3935346E-15  0.1262379E-14  0.4938272E-01
    1      -11.644881   1.000000
    2      -11.085516   1.000000
    3      -10.298643   1.000000
    4       -9.322895   1.000000
    5       -9.113661   1.000000
    6       -9.082206   1.000000
    7       -8.931394   1.000000
    8       -8.621963   1.000000
    9       -8.553179   1.000000
   10       -8.506401   1.000000
   11       -8.475615   1.000000
   12       -8.355587   1.000000
   13       -8.334371   1.000000
   14       -8.306532   1.000000
   15       -7.414286   1.000000
   16       -7.128419   1.000000
   17       -7.116964   1.000000
   18       -7.052682   1.000000
   19       -6.889416   1.000000
   20       -6.697442   1.000000
   21       -6.497257   1.000000
   22       -6.348409   1.000000
   23       -6.223411   1.000000
   24       -6.155611   1.000000
   25       -6.095302   1.000000
   26       -5.926725   1.000000
   27       -5.885314   1.000000
   28       -5.684109   1.000000
   29       -5.458877   1.000000
   30       -5.314494   1.000000
   31       -4.765834   1.000000
   32       -4.736803   1.000000
   33       -4.350698   1.000000
   34       -4.250326   1.000000
   35       -4.213833   1.000000
   36       -4.176183   1.000000
   37       -3.817014   1.000000
   38       -3.715647   1.000000
   39       -3.619448   1.000000
   40       -3.573462   1.000000
   41       -3.445222   1.000000
   42       -3.413080   1.000000
   43       -3.260410   1.000000
   44       -3.165238   1.000000
   45       -2.965241   1.000000
   46       -2.868709   1.000000
   47       -2.772555   1.000000
   48       -2.669603   1.000000
   49       -2.463227   1.000000
   50       -2.395640   1.000000
   51       -2.386236   1.000000
   52       -2.269355   1.000000
   53       -2.236466   1.000000
   54       -2.199989   1.000000
   55       -2.167961   1.000000
   56       -2.042719   1.000000
   57       -2.008298   1.000000
   58       -1.992421   1.000000
   59       -1.820689   1.000000
   60       -1.807311   1.000000
   61       -1.757576   1.000000
   62       -1.706027   1.000000
   63       -1.665002   1.000000
   64       -1.568300   1.000000
   65       -1.537002   1.000000
   66       -1.474808   1.000000
   67       -1.323666   1.000000
   68       -1.246517   1.000000
   69       -1.163383   1.000000
   70       -1.114286   1.000000
   71       -1.005305   1.000000
   72       -0.904710   1.000000
   73       -0.771016   1.000000
   74       -0.745073   1.000000
   75       -0.656524   1.000000
   76       -0.519750   1.000000
   77       -0.448023   1.000000
   78       -0.271750   1.000000
   79       -0.192760   1.000000
   80       -0.062121   1.000000
   81        0.149039   1.000000
   82        0.222570   1.000000
   83        0.233484   1.000000
   84        0.394995   1.000000
   85        0.612013   1.000000
   86        0.710178   1.000000
   87        0.838479   1.000000
   88        0.908407   1.000000
   89        1.051562   1.000000
   90        1.091654   1.000000
   91        1.210433   1.000000
   92        1.367982   1.000000
   93        1.396409   1.000000
   94        1.493166   1.000000
   95        1.656724   1.000006
   96        1.811047   1.000473
   97        2.054619   1.028823
   98        2.181902   0.998897
   99        2.330910   0.577386
  100        2.500026   0.022761
  101        2.609797  -0.034620
  102        2.677686  -0.021136
  103        2.834218  -0.001611
  104        2.882497  -0.000534
  105        2.995687  -0.000024
  106        3.038929  -0.000006
  107        3.047484  -0.000005
  108        3.120673  -0.000000
  109        3.151888  -0.000000
  110        3.180300  -0.000000
  111        3.303146  -0.000000
  112        3.349526  -0.000000
  113        3.381202  -0.000000
  114        3.430823  -0.000000
  115        3.437331  -0.000000
  116        3.535412  -0.000000
  117        3.572951  -0.000000
  118        3.578429  -0.000000
  119        3.594772  -0.000000
  120        3.677781  -0.000000
  121        3.749871  -0.000000
  122        3.785000  -0.000000
  123        3.820412  -0.000000
  124        3.950414  -0.000000
  125        4.000247  -0.000000
  126        4.090672  -0.000000
  127        4.127024  -0.000000
  128        4.322205  -0.000000
  129        4.483343  -0.000000
  130        4.693055  -0.000000
  131        5.639107  -0.000000
  132        6.070260  -0.000000

  0.3333333E+00  0.3939838E-15  0.1262379E-14  0.4938272E-01
    1      -11.369641   1.000000
    2      -10.835978   1.000000
    3      -10.115781   1.000000
    4       -9.928177   1.000000
    5       -9.592646   1.000000
    6       -9.308648   1.000000
    7       -8.750914   1.000000
    8       -8.713861   1.000000
    9       -8.667129   1.000000
   10       -8.663497   1.000000
   11       -8.537646   1.000000
   12       -8.442363   1.000000
   13       -8.344273   1.000000
   14       -8.236104   1.000000
   15       -7.779493   1.000000
   16       -7.274931   1.000000
   17       -6.940473   1.000000
   18       -6.886054   1.000000
   19       -6.476014   1.000000
   20       -6.445890   1.000000
   21       -6.332724   1.000000
   22       -6.235803   1.000000
   23       -6.168168   1.000000
   24       -6.097007   1.000000
   25       -5.858857   1.000000
   26       -5.827631   1.000000
   27       -5.425725   1.000000
   28       -5.288531   1.000000
   29       -4.995948   1.000000
   30       -4.864610   1.000000
   31       -4.546961   1.000000
   32       -4.464888   1.000000
   33       -4.172171   1.000000
   34       -4.058021   1.000000
   35       -4.035205   1.000000
   36       -3.981999   1.000000
   37       -3.950638   1.000000
   38       -3.898821   1.000000
   39       -3.855337   1.000000
   40       -3.753138   1.000000
   41       -3.668059   1.000000
   42       -3.614983   1.000000
   43       -3.241340   1.000000
   44       -3.034278   1.000000
   45       -3.004933   1.000000
   46       -2.943407   1.000000
   47       -2.817627   1.000000
   48       -2.740249   1.000000
   49       -2.669269   1.000000
   50       -2.504773   1.000000
   51       -2.466405   1.000000
   52       -2.374223   1.000000
   53       -2.338882   1.000000
   54       -2.318037   1.000000
   55       -2.234792   1.000000
   56       -2.138526   1.000000
   57       -2.104640   1.000000
   58       -2.054577   1.000000
   59       -1.965192   1.000000
   60       -1.882815   1.000000
   61       -1.814037   1.000000
   62       -1.769921   1.000000
   63       -1.721881   1.000000
   64       -1.684899   1.000000
   65       -1.578773   1.000000
   66       -1.520735   1.000000
   67       -1.458630   1.000000
   68       -1.419774   1.000000
   69       -1.322498   1.000000
   70       -1.260980   1.000000
   71       -1.067771   1.000000
   72       -1.017897   1.000000
   73       -0.940678   1.000000
   74       -0.818301   1.000000
   75       -0.760418   1.000000
   76       -0.680881   1.000000
   77       -0.508999   1.000000
   78       -0.414090   1.000000
   79       -0.287222   1.000000
   80       -0.066293   1.000000
   81        0.108903   1.000000
   82        0.194639   1.000000
   83        0.336893   1.000000
   84        0.374994   1.000000
   85        0.486097   1.000000
   86        0.567828   1.000000
   87        0.760758   1.000000
   88        0.764002   1.000000
   89        0.920225   1.000000
   90        1.048431   1.000000
   91        1.098075   1.000000
   92        1.264032   1.000000
   93        1.346139   1.000000
   94        1.458641   1.000000
   95        1.717012   1.000037
   96        1.806553   1.000423
   97        1.873108   1.001939
   98        2.007891   1.018245
   99        2.125914   1.033390
  100        2.458436   0.105811
  101        2.545366  -0.022973
  102        2.636724  -0.030336
  103        2.701641  -0.015943
  104        2.752555  -0.007580
  105        2.847452  -0.001206
  106        2.905410  -0.000302
  107        2.931165  -0.000154
  108        3.024736  -0.000010
  109        3.066410  -0.000002
  110        3.154077  -0.000000
  111        3.212775  -0.000000
  112        3.239559  -0.000000
  113        3.270189  -0.000000
  114        3.348989  -0.000000
  115        3.415735  -0.000000
  116        3.495406  -0.000000
  117        3.587294  -0.000000
  118        3.599294  -0.000000
  119        3.661101  -0.000000
  120        3.701516  -0.000000
  121        3.764649  -0.000000
  122        3.814032  -0.000000
  123        3.841774  -0.000000
  124        3.907459  -0.000000
  125        4.010692  -0.000000
  126        4.044806  -0.000000
  127        4.134252  -0.000000
  128        4.244374  -0.000000
  129        4.339547  -0.000000
  130        4.431188  -0.000000
  131        4.722625  -0.000000
  132        5.651619  -0.000000

  0.4444444E+00  0.3881204E-15  0.1262379E-14  0.4938272E-01
    1      -11.016139   1.000000
    2      -10.513832   1.000000
    3      -10.450455   1.000000
    4      -10.046492   1.000000
    5       -9.879238   1.000000
    6       -9.585788   1.000000
    7       -8.751584   1.000000
    8       -8.750861   1.000000
    9       -8.723337   1.000000
   10       -8.606831   1.000000
   11       -8.508674   1.000000
   12       -8.478878   1.000000
   13       -8.330362   1.000000
   14       -8.155424   1.000000
   15       -8.007180   1.000000
   16       -7.606192   1.000000
   17       -6.894019   1.000000
   18       -6.773969   1.000000
   19       -6.280541   1.000000
   20       -6.250290   1.000000
   21       -6.173050   1.000000
   22       -6.056146   1.000000
   23       -6.018314   1.000000
   24       -5.993669   1.000000
   25       -5.890546   1.000000
   26       -5.804460   1.000000
   27       -4.789548   1.000000
   28       -4.616154   1.000000
   29       -4.569644   1.000000
   30       -4.499330   1.000000
   31       -4.419021   1.000000
   32       -4.320760   1.000000
   33       -4.305691   1.000000
   34       -4.220010   1.000000
   35       -4.164368   1.000000
   36       -4.098900   1.000000
   37       -3.964397   1.000000
   38       -3.930897   1.000000
   39       -3.865144   1.000000
   40       -3.800848   1.000000
   41       -3.677752   1.000000
   42       -3.645770   1.000000
   43       -3.574809   1.000000
   44       -3.499911   1.000000
   45       -3.033836   1.000000
   46       -3.014409   1.000000
   47       -2.867077   1.000000
   48       -2.783257   1.000000
   49       -2.673885   1.000000
   50       -2.511464   1.000000
   51       -2.463891   1.000000
   52       -2.430643   1.000000
   53       -2.376772   1.000000
   54       -2.340690   1.000000
   55       -2.316547   1.000000
   56       -2.238626   1.000000
   57       -2.142208   1.000000
   58       -2.091609   1.000000
   59       -2.056589   1.000000
   60       -1.927498   1.000000
   61       -1.854515   1.000000
   62       -1.828334   1.000000
   63       -1.794880   1.000000
   64       -1.753199   1.000000
   65       -1.690082   1.000000
   66       -1.553550   1.000000
   67       -1.507644   1.000000
   68       -1.431599   1.000000
   69       -1.354310   1.000000
   70       -1.338507   1.000000
   71       -1.106650   1.000000
   72       -1.032936   1.000000
   73       -0.977792   1.000000
   74       -0.903119   1.000000
   75       -0.879237   1.000000
   76       -0.707116   1.000000
   77       -0.659005   1.000000
   78       -0.410159   1.000000
   79       -0.261823   1.000000
   80       -0.160154   1.000000
   81        0.020565   1.000000
   82        0.284776   1.000000
   83        0.313845   1.000000
   84        0.404541   1.000000
   85        0.414517   1.000000
   86        0.546193   1.000000
   87        0.621684   1.000000
   88        0.742063   1.000000
   89        0.817111   1.000000
   90        1.037501   1.000000
   91        1.070390   1.000000
   92        1.275807   1.000000
   93        1.430431   1.000000
   94        1.573311   1.000000
   95        1.615631   1.000001
   96        1.863855   1.001594
   97        1.897157   1.003153
   98        1.941825   1.007074
   99        1.979489   1.012621
  100        2.085455   1.034254
  101        2.154248   1.022356
  102        2.391613   0.325263
  103        2.544100  -0.022224
  104        2.632934  -0.031086
  105        2.749850  -0.007922
  106        2.882379  -0.000536
  107        2.916150  -0.000229
  108        2.930969  -0.000154
  109        2.972942  -0.000047
  110        3.066739  -0.000002
  111        3.133196  -0.000000
  112        3.155306  -0.000000
  113        3.205674  -0.000000
  114        3.267575  -0.000000
  115        3.402921  -0.000000
  116        3.497484  -0.000000
  117        3.570980  -0.000000
  118        3.602238  -0.000000
  119        3.695692  -0.000000
  120        3.713574  -0.000000
  121        3.777328  -0.000000
  122        3.830213  -0.000000
  123        3.883133  -0.000000
  124        4.061794  -0.000000
  125        4.139269  -0.000000
  126        4.186660  -0.000000
  127        4.226149  -0.000000
  128        4.588398  -0.000000
  129        4.601294  -0.000000
  130        4.736282  -0.000000
  131        4.929118  -0.000000
  132        5.163871  -0.000000

  0.1111111E+00  0.1111111E+00  0.1262379E-14  0.2469136E-01
    1      -11.700630   1.000000
    2      -11.136501   1.000000
    3      -10.336110   1.000000
    4       -9.060997   1.000000
    5       -9.042141   1.000000
    6       -8.970957   1.000000
    7       -8.894360   1.000000
    8       -8.820216   1.000000
    9       -8.665335   1.000000
   10       -8.600634   1.000000
   11       -8.488872   1.000000
   12       -8.330243   1.000000
   13       -8.149594   1.000000
   14       -7.748622   1.000000
   15       -7.690718   1.000000
   16       -7.264572   1.000000
   17       -7.241205   1.000000
   18       -7.106964   1.000000
   19       -6.965915   1.000000
   20       -6.561317   1.000000
   21       -6.500661   1.000000
   22       -6.495138   1.000000
   23       -6.273390   1.000000
   24       -6.226415   1.000000
   25       -6.140245   1.000000
   26       -6.025877   1.000000
   27       -5.834652   1.000000
   28       -5.657886   1.000000
   29       -5.494349   1.000000
   30       -5.383332   1.000000
   31       -5.032276   1.000000
   32       -4.621317   1.000000
   33       -4.501817   1.000000
   34       -4.454698   1.000000
   35       -4.256487   1.000000
   36       -4.083961   1.000000
   37       -3.874342   1.000000
   38       -3.766629   1.000000
   39       -3.645443   1.000000
   40       -3.576001   1.000000
   41       -3.433578   1.000000
   42       -3.257433   1.000000
   43       -3.137945   1.000000
   44       -2.998463   1.000000
   45       -2.975729   1.000000
   46       -2.863549   1.000000
   47       -2.751680   1.000000
   48       -2.586071   1.000000
   49       -2.550853   1.000000
   50       -2.529156   1.000000
   51       -2.388155   1.000000
   52       -2.227080   1.000000
   53       -2.164144   1.000000
   54       -2.120565   1.000000
   55       -2.088672   1.000000
   56       -2.079025   1.000000
   57       -2.040242   1.000000
   58       -1.924343   1.000000
   59       -1.906770   1.000000
   60       -1.742558   1.000000
   61       -1.719414   1.000000
   62       -1.684945   1.000000
   63       -1.645874   1.000000
   64       -1.542313   1.000000
   65       -1.530256   1.000000
   66       -1.400882   1.000000
   67       -1.263273   1.000000
   68       -1.206003   1.000000
   69       -1.118713   1.000000
   70       -1.010096   1.000000
   71       -0.967426   1.000000
   72       -0.951060   1.000000
   73       -0.782412   1.000000
   74       -0.770105   1.000000
   75       -0.580467   1.000000
   76       -0.471766   1.000000
   77       -0.318209   1.000000
   78       -0.259964   1.000000
   79       -0.214946   1.000000
   80        0.025538   1.000000
   81        0.030520   1.000000
   82        0.171421   1.000000
   83        0.240763   1.000000
   84        0.483028   1.000000
   85        0.754500   1.000000
   86        0.797533   1.000000
   87        0.964055   1.000000
   88        0.978557   1.000000
   89        1.035626   1.000000
   90        1.045801   1.000000
   91        1.177670   1.000000
   92        1.217644   1.000000
   93        1.418560   1.000000
   94        1.586323   1.000000
   95        1.638388   1.000003
   96        1.814532   1.000515
   97        2.166468   1.013761
   98        2.260631   0.837364
   99        2.318189   0.629828
  100        2.321131   0.617827
  101        2.591659  -0.035432
  102        2.693942  -0.017544
  103        2.712129  -0.013891
  104        2.881824  -0.000543
  105        2.981944  -0.000036
  106        2.999413  -0.000021
  107        3.159195  -0.000000
  108        3.187833  -0.000000
  109        3.289865  -0.000000
  110        3.308315  -0.000000
  111        3.347209  -0.000000
  112        3.359975  -0.000000
  113        3.387698  -0.000000
  114        3.404192  -0.000000
  115        3.463537  -0.000000
  116        3.487720  -0.000000
  117        3.535154  -0.000000
  118        3.587533  -0.000000
  119        3.605492  -0.000000
  120        3.680236  -0.000000
  121        3.752087  -0.000000
  122        3.754562  -0.000000
  123        3.795594  -0.000000
  124        3.830803  -0.000000
  125        3.952357  -0.000000
  126        4.018711  -0.000000
  127        4.139174  -0.000000
  128        4.217963  -0.000000
  129        4.491614  -0.000000
  130        4.753410  -0.000000
  131        5.381813  -0.000000
  132        5.974646  -0.000000

  0.2222222E+00  0.1111111E+00  0.1262379E-14  0.4938272E-01
    1      -11.477216   1.000000
    2      -10.933997   1.000000
    3      -10.186744   1.000000
    4       -9.613921   1.000000
    5       -9.319263   1.000000
    6       -9.166987   1.000000
    7       -9.106932   1.000000
    8       -8.925469   1.000000
    9       -8.830168   1.000000
   10       -8.807740   1.000000
   11       -8.344440   1.000000
   12       -8.234126   1.000000
   13       -8.123515   1.000000
   14       -7.897136   1.000000
   15       -7.549822   1.000000
   16       -7.236404   1.000000
   17       -7.211334   1.000000
   18       -7.080808   1.000000
   19       -6.955610   1.000000
   20       -6.604666   1.000000
   21       -6.445691   1.000000
   22       -6.114147   1.000000
   23       -6.108628   1.000000
   24       -5.960214   1.000000
   25       -5.781223   1.000000
   26       -5.648792   1.000000
   27       -5.596892   1.000000
   28       -5.478330   1.000000
   29       -5.169815   1.000000
   30       -5.120217   1.000000
   31       -4.988468   1.000000
   32       -4.566016   1.000000
   33       -4.209436   1.000000
   34       -4.118308   1.000000
   35       -4.088737   1.000000
   36       -3.970311   1.000000
   37       -3.877017   1.000000
   38       -3.841540   1.000000
   39       -3.740556   1.000000
   40       -3.686540   1.000000
   41       -3.501155   1.000000
   42       -3.334651   1.000000
   43       -3.202799   1.000000
   44       -3.068723   1.000000
   45       -2.931724   1.000000
   46       -2.870159   1.000000
   47       -2.847124   1.000000
   48       -2.784285   1.000000
   49       -2.551779   1.000000
   50       -2.536630   1.000000
   51       -2.472428   1.000000
   52       -2.428566   1.000000
   53       -2.365974   1.000000
   54       -2.305515   1.000000
   55       -2.264410   1.000000
   56       -2.137789   1.000000
   57       -2.041961   1.000000
   58       -1.983417   1.000000
   59       -1.935162   1.000000
   60       -1.829719   1.000000
   61       -1.772545   1.000000
   62       -1.721917   1.000000
   63       -1.675833   1.000000
   64       -1.655948   1.000000
   65       -1.626728   1.000000
   66       -1.487967   1.000000
   67       -1.424417   1.000000
   68       -1.400799   1.000000
   69       -1.336837   1.000000
   70       -1.138675   1.000000
   71       -1.037145   1.000000
   72       -1.017356   1.000000
   73       -0.911815   1.000000
   74       -0.832718   1.000000
   75       -0.632102   1.000000
   76       -0.533982   1.000000
   77       -0.508281   1.000000
   78       -0.390486   1.000000
   79       -0.256902   1.000000
   80       -0.072294   1.000000
   81       -0.048568   1.000000
   82        0.174579   1.000000
   83        0.385169   1.000000
   84        0.438520   1.000000
   85        0.638308   1.000000
   86        0.683608   1.000000
   87        0.748686   1.000000
   88        0.822847   1.000000
   89        0.934494   1.000000
   90        1.074830   1.000000
   91        1.106811   1.000000
   92        1.212387   1.000000
   93        1.340280   1.000000
   94        1.419201   1.000000
   95        1.699357   1.000022
   96        1.790583   1.000283
   97        1.919074   1.004762
   98        2.033883   1.024130