 running on   54 total cores
 distrk:  each k-point on   54 cores,    1 groups
 distr:  one band on    9 cores,    6 groups
 using from now: INCAR     
 vasp.5.4.4.18Apr17-6-g9f103f2a35 (build Dec  7 2020 12:43:57) complex           
 POSCAR found type information on POSCAR  Mo V  B 
 POSCAR found :  3 types and      54 ions
 scaLAPACK will be used

 ----------------------------------------------------------------------------- 
|                                                                             |
|  ADVICE TO THIS USER RUNNING 'VASP/VAMP'   (HEAR YOUR MASTER'S VOICE ...):  |
|                                                                             |
|      You enforced a specific xc-type in the INCAR file,                     |
|      a different type was found on the POTCAR file                          |
|          I HOPE YOU KNOW, WHAT YOU ARE  DOING                               |
|                                                                             |
 ----------------------------------------------------------------------------- 

 LDA part: xc-table for Pade appr. of Perdew
 POSCAR, INCAR and KPOINTS ok, starting setup
 resort distribution
 resort distribution
 resort distribution
 resort distribution
 resort distribution
 resort distribution
 resort distribution
 resort distribution
 resort distribution
 resort distribution
 resort distribution
 resort distribution
 resort distribution
 resort distribution
 resort distribution
 resort distribution
 resort distribution
 resort distribution
 resort distribution
 resort distribution
 resort distribution
 resort distribution
 resort distribution
 resort distribution
 resort distribution
 resort distribution
 resort distribution
 resort distribution
 resort distribution
 resort distribution
 resort distribution
 resort distribution
 resort distribution
 resort distribution
 resort distribution
 resort distribution
 resort distribution
 resort distribution
 resort distribution
 resort distribution
 resort distribution
 resort distribution
 resort distribution
 resort distribution
 resort distribution
 resort distribution
 resort distribution
 resort distribution
 resort distribution
 resort distribution
 resort distribution
 resort distribution
 resort distribution
 resort distribution
 FFT: planning ...
 WAVECAR not read
 augmentation electrons   200.02466746779467     
 soft         electrons   0.0000000000000000     
 augmentation electrons   200.02466746779467     
 soft         electrons   0.0000000000000000     
 augmentation electrons   200.02466746779467     
 soft         electrons   0.0000000000000000     
 augmentation electrons   200.02466746779467     
 soft         electrons   0.0000000000000000     
 augmentation electrons   200.02466746779467     
 soft         electrons   0.0000000000000000     
 augmentation electrons   200.02466746779467     
 soft         electrons   0.0000000000000000     
 augmentation electrons   200.02466746779467     
 soft         electrons   0.0000000000000000     
 augmentation electrons   200.02466746779467     
 soft         electrons   0.0000000000000000     
 augmentation electrons   200.02466746779467     
 soft         electrons   0.0000000000000000     
 augmentation electrons   200.02466746779467     
 soft         electrons   0.0000000000000000     
 augmentation electrons   200.02466746779467     
 soft         electrons   0.0000000000000000     
 augmentation electrons   200.02466746779467     
 soft         electrons   0.0000000000000000     
 augmentation electrons   200.02466746779467     
 soft         electrons   0.0000000000000000     
 augmentation electrons   200.02466746779467     
 soft         electrons   0.0000000000000000     
 augmentation electrons   200.02466746779467     
 soft         electrons   0.0000000000000000     
 augmentation electrons   200.02466746779467     
 soft         electrons   0.0000000000000000     
 augmentation electrons   200.02466746779467     
 soft         electrons   0.0000000000000000     
 augmentation electrons   200.02466746779467     
 soft         electrons   0.0000000000000000     
 augmentation electrons   200.02466746779467     
 soft         electrons   0.0000000000000000     
 augmentation electrons   200.02466746779467     
 soft         electrons   0.0000000000000000     
 augmentation electrons   200.02466746779467     
 soft         electrons   0.0000000000000000     
 augmentation electrons   200.02466746779467     
 soft         electrons   0.0000000000000000     
 augmentation electrons   200.02466746779467     
 augmentation electrons   200.02466746779467     
 soft         electrons   0.0000000000000000     
 augmentation electrons   200.02466746779467     
 soft         electrons   0.0000000000000000     
 augmentation electrons   200.02466746779467     
 soft         electrons   0.0000000000000000     
 augmentation electrons   200.02466746779467     
 soft         electrons   0.0000000000000000     
 augmentation electrons   200.02466746779467     
 soft         electrons   0.0000000000000000     
 augmentation electrons   200.02466746779467     
 soft         electrons   0.0000000000000000     
 augmentation electrons   200.02466746779467     
 soft         electrons   0.0000000000000000     
 augmentation electrons   200.02466746779467     
 soft         electrons   0.0000000000000000     
 augmentation electrons   200.02466746779467     
 soft         electrons   0.0000000000000000     
 augmentation electrons   200.02466746779467     
 soft         electrons   0.0000000000000000     
 augmentation electrons   200.02466746779467     
 soft         electrons   0.0000000000000000     
 augmentation electrons   200.02466746779467     
 soft         electrons   0.0000000000000000     
 augmentation electrons   200.02466746779467     
 soft         electrons   0.0000000000000000     
 augmentation electrons   200.02466746779467     
 soft         electrons   0.0000000000000000     
 augmentation electrons   200.02466746779467     
 soft         electrons   0.0000000000000000     
 augmentation electrons   200.02466746779467     
 soft         electrons   0.0000000000000000     
 augmentation electrons   200.02466746779467     
 soft         electrons   0.0000000000000000     
 augmentation electrons   200.02466746779467     
 soft         electrons   0.0000000000000000     
 augmentation electrons   200.02466746779467     
 soft         electrons   0.0000000000000000     
 augmentation electrons   200.02466746779467     
 soft         electrons   0.0000000000000000     
 augmentation electrons   200.02466746779467     
 soft         electrons   0.0000000000000000     
 augmentation electrons   200.02466746779467     
 soft         electrons   0.0000000000000000     
 augmentation electrons   200.02466746779467     
 soft         electrons   0.0000000000000000     
 augmentation electrons   200.02466746779467     
 soft         electrons   0.0000000000000000     
 augmentation electrons   200.02466746779467     
 soft         electrons   0.0000000000000000     
 augmentation electrons   200.02466746779467     
 soft         electrons   0.0000000000000000     
 augmentation electrons   200.02466746779467     
 soft         electrons   0.0000000000000000     
 augmentation electrons   200.02466746779467     
 soft         electrons   0.0000000000000000     
 augmentation electrons   200.02466746779467     
 soft         electrons   0.0000000000000000     
 augmentation electrons   200.02466746779467     
 soft         electrons   0.0000000000000000     
 soft         electrons   0.0000000000000000     
 augmentation electrons   200.02466746779467     
 soft         electrons   0.0000000000000000     
 total        electrons   200.02466746779467     
 total        electrons   200.02466746779467     
 total        electrons   200.02466746779467     
 total        electrons   200.02466746779467     
 total        electrons   200.02466746779467     
 total        electrons   200.02466746779467     
 total        electrons   200.02466746779467     
 total        electrons   200.02466746779467     
 total        electrons   200.02466746779467     
 total        electrons   200.02466746779467     
 total        electrons   200.02466746779467     
 total        electrons   200.02466746779467     
 total        electrons   200.02466746779467     
 total        electrons   200.02466746779467     
 total        electrons   200.02466746779467     
 total        electrons   200.02466746779467     
 total        electrons   200.02466746779467     
 total        electrons   200.02466746779467     
 total        electrons   200.02466746779467     
 total        electrons   200.02466746779467     
 total        electrons   200.02466746779467     
 total        electrons   200.02466746779467     
 total        electrons   200.02466746779467     
 total        electrons   200.02466746779467     
 total        electrons   200.02466746779467     
 total        electrons   200.02466746779467     
 total        electrons   200.02466746779467     
 total        electrons   200.02466746779467     
 total        electrons   200.02466746779467     
 total        electrons   200.02466746779467     
 total        electrons   200.02466746779467     
 total        electrons   200.02466746779467     
 total        electrons   200.02466746779467     
 total        electrons   200.02466746779467     
 total        electrons   200.02466746779467     
 total        electrons   200.02466746779467     
 total        electrons   200.02466746779467     
 total        electrons   200.02466746779467     
 total        electrons   200.02466746779467     
 total        electrons   200.02466746779467     
 total        electrons   200.02466746779467     
 total        electrons   200.02466746779467     
 total        electrons   200.02466746779467     
 total        electrons   200.02466746779467     
 total        electrons   200.02466746779467     
 total        electrons   200.02466746779467     
 total        electrons   200.02466746779467     
 total        electrons   200.02466746779467     
 total        electrons   200.02466746779467     
 total        electrons   200.02466746779467     
 total        electrons   200.02466746779467     
 total        electrons   200.02466746779467     
 total        electrons   200.02466746779467     
 total        electrons   200.02466746779467     
 augmentation electrons   618.60706413609398     
 soft         electrons   0.0000000000000000     
 augmentation electrons   618.60706413609398     
 soft         electrons   0.0000000000000000     
 augmentation electrons   618.60706413609398     
 soft         electrons   0.0000000000000000     
 augmentation electrons   618.60706413609398     
 soft         electrons   0.0000000000000000     
 augmentation electrons   618.60706413609398     
 soft         electrons   0.0000000000000000     
 augmentation electrons   618.60706413609398     
 soft         electrons   0.0000000000000000     
 augmentation electrons   618.60706413609398     
 soft         electrons   0.0000000000000000     
 augmentation electrons   618.60706413609398     
 soft         electrons   0.0000000000000000     
 augmentation electrons   618.60706413609398     
 soft         electrons   0.0000000000000000     
 augmentation electrons   618.60706413609398     
 soft         electrons   0.0000000000000000     
 augmentation electrons   618.60706413609398     
 soft         electrons   0.0000000000000000     
 augmentation electrons   618.60706413609398     
 soft         electrons   0.0000000000000000     
 augmentation electrons   618.60706413609398     
 soft         electrons   0.0000000000000000     
 augmentation electrons   618.60706413609398     
 soft         electrons   0.0000000000000000     
 augmentation electrons   618.60706413609398     
 soft         electrons   0.0000000000000000     
 augmentation electrons   618.60706413609398     
 soft         electrons   0.0000000000000000     
 augmentation electrons   618.60706413609398     
 soft         electrons   0.0000000000000000     
 augmentation electrons   618.60706413609398     
 soft         electrons   0.0000000000000000     
 augmentation electrons   618.60706413609398     
 soft         electrons   0.0000000000000000     
 augmentation electrons   618.60706413609398     
 soft         electrons   0.0000000000000000     
 augmentation electrons   618.60706413609398     
 soft         electrons   0.0000000000000000     
 augmentation electrons   618.60706413609398     
 soft         electrons   0.0000000000000000     
 augmentation electrons   618.60706413609398     
 soft         electrons   0.0000000000000000     
 augmentation electrons   618.60706413609398     
 soft         electrons   0.0000000000000000     
 augmentation electrons   618.60706413609398     
 soft         electrons   0.0000000000000000     
 augmentation electrons   618.60706413609398     
 soft         electrons   0.0000000000000000     
 augmentation electrons   618.60706413609398     
 soft         electrons   0.0000000000000000     
 augmentation electrons   618.60706413609398     
 soft         electrons   0.0000000000000000     
 augmentation electrons   618.60706413609398     
 augmentation electrons   618.60706413609398     
 soft         electrons   0.0000000000000000     
 augmentation electrons   618.60706413609398     
 soft         electrons   0.0000000000000000     
 augmentation electrons   618.60706413609398     
 soft         electrons   0.0000000000000000     
 augmentation electrons   618.60706413609398     
 soft         electrons   0.0000000000000000     
 augmentation electrons   618.60706413609398     
 soft         electrons   0.0000000000000000     
 augmentation electrons   618.60706413609398     
 soft         electrons   0.0000000000000000     
 augmentation electrons   618.60706413609398     
 soft         electrons   0.0000000000000000     
 augmentation electrons   618.60706413609398     
 soft         electrons   0.0000000000000000     
 augmentation electrons   618.60706413609398     
 soft         electrons   0.0000000000000000     
 augmentation electrons   618.60706413609398     
 soft         electrons   0.0000000000000000     
 augmentation electrons   618.60706413609398     
 soft         electrons   0.0000000000000000     
 augmentation electrons   618.60706413609398     
 soft         electrons   0.0000000000000000     
 augmentation electrons   618.60706413609398     
 soft         electrons   0.0000000000000000     
 augmentation electrons   618.60706413609398     
 soft         electrons   0.0000000000000000     
 augmentation electrons   618.60706413609398     
 soft         electrons   0.0000000000000000     
 augmentation electrons   618.60706413609398     
 soft         electrons   0.0000000000000000     
 augmentation electrons   618.60706413609398     
 soft         electrons   0.0000000000000000     
 augmentation electrons   618.60706413609398     
 soft         electrons   0.0000000000000000     
 augmentation electrons   618.60706413609398     
 soft         electrons   0.0000000000000000     
 augmentation electrons   618.60706413609398     
 soft         electrons   0.0000000000000000     
 augmentation electrons   618.60706413609398     
 soft         electrons   0.0000000000000000     
 augmentation electrons   618.60706413609398     
 soft         electrons   0.0000000000000000     
 augmentation electrons   618.60706413609398     
 soft         electrons   0.0000000000000000     
 augmentation electrons   618.60706413609398     
 soft         electrons   0.0000000000000000     
 augmentation electrons   618.60706413609398     
 soft         electrons   0.0000000000000000     
 soft         electrons   0.0000000000000000     
 total        electrons   618.60706413609398     
 total        electrons   618.60706413609398     
 total        electrons   618.60706413609398     
 total        electrons   618.60706413609398     
 total        electrons   618.60706413609398     
 total        electrons   618.60706413609398     
 total        electrons   618.60706413609398     
 total        electrons   618.60706413609398     
 total        electrons   618.60706413609398     
 total        electrons   618.60706413609398     
 total        electrons   618.60706413609398     
 total        electrons   618.60706413609398     
 total        electrons   618.60706413609398     
 total        electrons   618.60706413609398     
 total        electrons   618.60706413609398     
 total        electrons   618.60706413609398     
 total        electrons   618.60706413609398     
 total        electrons   618.60706413609398     
 total        electrons   618.60706413609398     
 total        electrons   618.60706413609398     
 total        electrons   618.60706413609398     
 total        electrons   618.60706413609398     
 total        electrons   618.60706413609398     
 total        electrons   618.60706413609398     
 total        electrons   618.60706413609398     
 total        electrons   618.60706413609398     
 total        electrons   618.60706413609398     
 total        electrons   618.60706413609398     
 total        electrons   618.60706413609398     
 total        electrons   618.60706413609398     
 total        electrons   618.60706413609398     
 total        electrons   618.60706413609398     
 total        electrons   618.60706413609398     
 total        electrons   618.60706413609398     
 total        electrons   618.60706413609398     
 total        electrons   618.60706413609398     
 total        electrons   618.60706413609398     
 total        electrons   618.60706413609398     
 total        electrons   618.60706413609398     
 total        electrons   618.60706413609398     
 total        electrons   618.60706413609398     
 total        electrons   618.60706413609398     
 total        electrons   618.60706413609398     
 total        electrons   618.60706413609398     
 total        electrons   618.60706413609398     
 total        electrons   618.60706413609398     
 total        electrons   618.60706413609398     
 total        electrons   618.60706413609398     
 total        electrons   618.60706413609398     
 total        electrons   618.60706413609398     
 total        electrons   618.60706413609398     
 total        electrons   618.60706413609398     
 total        electrons   618.60706413609398     
 total        electrons   618.60706413609398     
 entering main loop
       N       E                     dE             d eps       ncg     rms          rms(c)
DAV:   1     0.176936117627E+04    0.17694E+04   -0.74407E+04  6600   0.132E+03
DAV:   2    -0.133830715197E+03   -0.19032E+04   -0.17428E+04  6948   0.343E+02
DAV:   3    -0.455812444973E+03   -0.32198E+03   -0.30669E+03  9432   0.146E+02
DAV:   4    -0.478826539520E+03   -0.23014E+02   -0.22462E+02 10512   0.427E+01
DAV:   5    -0.479700433654E+03   -0.87389E+00   -0.86097E+00 11100   0.808E+00    0.114E+02
RMM:   6    -0.482979868504E+03   -0.32794E+01   -0.86449E+02 10431   0.909E+01    0.705E+01
RMM:   7    -0.561424992756E+03   -0.78445E+02   -0.47139E+02  9008   0.771E+01    0.494E+01
RMM:   8    -0.508833301960E+03    0.52592E+02   -0.13161E+02 10536   0.261E+01    0.467E+01
RMM:   9    -0.462031656656E+03    0.46802E+02   -0.57305E+01  9740   0.229E+01    0.373E+01
RMM:  10    -0.418191234098E+03    0.43840E+02   -0.18579E+01  7466   0.168E+01    0.241E+01
RMM:  11    -0.407963905521E+03    0.10227E+02   -0.34870E+01  9807   0.150E+01    0.172E+01
RMM:  12    -0.405873255209E+03    0.20907E+01   -0.36484E+00  8850   0.620E+00    0.150E+01
RMM:  13    -0.406020745012E+03   -0.14749E+00   -0.11391E+00 10355   0.131E+00    0.142E+01
RMM:  14    -0.405910105689E+03    0.11064E+00   -0.11559E-01  9728   0.820E-01    0.136E+01
RMM:  15    -0.405436625122E+03    0.47348E+00   -0.11930E+00  8474   0.361E+00    0.102E+01
RMM:  16    -0.404518712720E+03    0.91791E+00   -0.12069E+00  7582   0.446E+00    0.574E+00
RMM:  17    -0.404377657681E+03    0.14106E+00   -0.75068E-01  9606   0.202E+00    0.433E+00
RMM:  18    -0.404350894438E+03    0.26763E-01   -0.17054E-01  9044   0.123E+00    0.384E+00
RMM:  19    -0.404265776842E+03    0.85118E-01   -0.23698E-01  9834   0.124E+00    0.281E+00
RMM:  20    -0.404202266305E+03    0.63511E-01   -0.15309E-01  9673   0.965E-01    0.151E+00
RMM:  21    -0.404185718331E+03    0.16548E-01   -0.58450E-02 10371   0.417E-01    0.916E-01
RMM:  22    -0.404175812929E+03    0.99054E-02   -0.45836E-02  9534   0.598E-01    0.502E-01
RMM:  23    -0.404174209525E+03    0.16034E-02   -0.15073E-02  9654   0.313E-01    0.266E-01
RMM:  24    -0.404173879774E+03    0.32975E-03   -0.41920E-03 10348   0.116E-01    0.163E-01
RMM:  25    -0.404174162710E+03   -0.28294E-03   -0.27996E-03  8398   0.167E-01    0.127E-01
RMM:  26    -0.404174830629E+03   -0.66792E-03   -0.18564E-03 10275   0.753E-02    0.137E-01
RMM:  27    -0.404175183955E+03   -0.35333E-03   -0.52080E-04  9426   0.663E-02    0.935E-02
RMM:  28    -0.404175809389E+03   -0.62543E-03   -0.41965E-04  7746   0.767E-02    0.676E-02
RMM:  29    -0.404176593128E+03   -0.78374E-03   -0.52006E-04  9699   0.524E-02    0.466E-02
RMM:  30    -0.404177007638E+03   -0.41451E-03   -0.15072E-04  9803   0.285E-02    0.573E-02
RMM:  31    -0.404177069736E+03   -0.62098E-04   -0.68081E-05  7960   0.289E-02    0.277E-02
RMM:  32    -0.404177102249E+03   -0.32513E-04   -0.19127E-05  7615   0.108E-02    0.180E-02
RMM:  33    -0.404177106133E+03   -0.38842E-05   -0.98888E-06  7439   0.740E-03    0.108E-02
RMM:  34    -0.404177121511E+03   -0.15378E-04   -0.34495E-06  5998   0.704E-03    0.671E-03
RMM:  35    -0.404177123170E+03   -0.16587E-05   -0.27304E-06  5866   0.397E-03    0.230E-03
RMM:  36    -0.404177126160E+03   -0.29902E-05   -0.10936E-06  5053   0.497E-03    0.293E-03
RMM:  37    -0.404177127926E+03   -0.17661E-05   -0.51578E-07  4773   0.239E-03    0.152E-03
RMM:  38    -0.404177128689E+03   -0.76333E-06   -0.32659E-07  4480   0.185E-03
   1 F= -.40417713E+03 E0= -.40418390E+03  d E =0.203039E-01
 augmentation electrons   18.224237127394012     
 soft         electrons   181.84639157094961     
 augmentation electrons   18.224237127394012     
 soft         electrons   181.84639157094961     
 augmentation electrons   18.224237127394012     
 soft         electrons   181.84639157094961     
 augmentation electrons   18.224237127394012     
 soft         electrons   181.84639157094961     
 augmentation electrons   18.224237127394012     
 soft         electrons   181.84639157094961     
 augmentation electrons   18.224237127394012     
 soft         electrons   181.84639157094961     
 augmentation electrons   18.224237127394012     
 soft         electrons   181.84639157094961     
 augmentation electrons   18.224237127394012     
 soft         electrons   181.84639157094961     
 augmentation electrons   18.224237127394012     
 soft         electrons   181.84639157094961     
 augmentation electrons   18.224237127394012     
 soft         electrons   181.84639157094961     
 augmentation electrons   18.224237127394012     
 soft         electrons   181.84639157094961     
 augmentation electrons   18.224237127394012     
 soft         electrons   181.84639157094961     
 augmentation electrons   18.224237127394012     
 soft         electrons   181.84639157094961     
 augmentation electrons   18.224237127394012     
 soft         electrons   181.84639157094961     
 augmentation electrons   18.224237127394012     
 soft         electrons   181.84639157094961     
 augmentation electrons   18.224237127394012     
 soft         electrons   181.84639157094961     
 augmentation electrons   18.224237127394012     
 soft         electrons   181.84639157094961     
 augmentation electrons   18.224237127394012     
 soft         electrons   181.84639157094961     
 augmentation electrons   18.224237127394012     
 soft         electrons   181.84639157094961     
 augmentation electrons   18.224237127394012     
 soft         electrons   181.84639157094961     
 augmentation electrons   18.224237127394012     
 soft         electrons   181.84639157094961     
 augmentation electrons   18.224237127394012     
 soft         electrons   181.84639157094961     
 augmentation electrons   18.224237127394012     
 soft         electrons   181.84639157094961     
 augmentation electrons   18.224237127394012     
 soft         electrons   181.84639157094961     
 augmentation electrons   18.224237127394012     
 soft         electrons   181.84639157094961     
 augmentation electrons   18.224237127394012     
 soft         electrons   181.84639157094961     
 augmentation electrons   18.224237127394012     
 soft         electrons   181.84639157094961     
 augmentation electrons   18.224237127394012     
 soft         electrons   181.84639157094961     
 augmentation electrons   18.224237127394012     
 soft         electrons   181.84639157094961     
 augmentation electrons   18.224237127394012     
 soft         electrons   181.84639157094961     
 augmentation electrons   18.224237127394012     
 soft         electrons   181.84639157094961     
 augmentation electrons   18.224237127394012     
 soft         electrons   181.84639157094961     
 augmentation electrons   18.224237127394012     
 soft         electrons   181.84639157094961     
 augmentation electrons   18.224237127394012     
 soft         electrons   181.84639157094961     
 augmentation electrons   18.224237127394012     
 soft         electrons   181.84639157094961     
 augmentation electrons   18.224237127394012     
 augmentation electrons   18.224237127394012     
 soft         electrons   181.84639157094961     
 augmentation electrons   18.224237127394012     
 soft         electrons   181.84639157094961     
 augmentation electrons   18.224237127394012     
 soft         electrons   181.84639157094961     
 augmentation electrons   18.224237127394012     
 soft         electrons   181.84639157094961     
 augmentation electrons   18.224237127394012     
 soft         electrons   181.84639157094961     
 augmentation electrons   18.224237127394012     
 soft         electrons   181.84639157094961     
 augmentation electrons   18.224237127394012     
 soft         electrons   181.84639157094961     
 augmentation electrons   18.224237127394012     
 soft         electrons   181.84639157094961     
 augmentation electrons   18.224237127394012     
 soft         electrons   181.84639157094961     
 augmentation electrons   18.224237127394012     
 soft         electrons   181.84639157094961     
 augmentation electrons   18.224237127394012     
 soft         electrons   181.84639157094961     
 augmentation electrons   18.224237127394012     
 soft         electrons   181.84639157094961     
 augmentation electrons   18.224237127394012     
 soft         electrons   181.84639157094961     
 augmentation electrons   18.224237127394012     
 soft         electrons   181.84639157094961     
 augmentation electrons   18.224237127394012     
 soft         electrons   181.84639157094961     
 augmentation electrons   18.224237127394012     
 soft         electrons   181.84639157094961     
 augmentation electrons   18.224237127394012     
 soft         electrons   181.84639157094961     
 augmentation electrons   18.224237127394012     
 soft         electrons   181.84639157094961     
 soft         electrons   181.84639157094961     
 total        electrons   200.07062869834363     
 total        electrons   200.07062869834363     
 total        electrons   200.07062869834363     
 total        electrons   200.07062869834363     
 total        electrons   200.07062869834363     
 total        electrons   200.07062869834363     
 total        electrons   200.07062869834363     
 total        electrons   200.07062869834363     
 total        electrons   200.07062869834363     
 total        electrons   200.07062869834363     
 total        electrons   200.07062869834363     
 total        electrons   200.07062869834363     
 total        electrons   200.07062869834363     
 total        electrons   200.07062869834363     
 total        electrons   200.07062869834363     
 total        electrons   200.07062869834363     
 total        electrons   200.07062869834363     
 total        electrons   200.07062869834363     
 total        electrons   200.07062869834363     
 total        electrons   200.07062869834363     
 total        electrons   200.07062869834363     
 total        electrons   200.07062869834363     
 total        electrons   200.07062869834363     
 total        electrons   200.07062869834363     
 total        electrons   200.07062869834363     
 total        electrons   200.07062869834363     
 total        electrons   200.07062869834363     
 total        electrons   200.07062869834363     
 total        electrons   200.07062869834363     
 total        electrons   200.07062869834363     
 total        electrons   200.07062869834363     
 total        electrons   200.07062869834363     
 total        electrons   200.07062869834363     
 total        electrons   200.07062869834363     
 total        electrons   200.07062869834363     
 total        electrons   200.07062869834363     
 total        electrons   200.07062869834363     
 total        electrons   200.07062869834363     
 total        electrons   200.07062869834363     
 total        electrons   200.07062869834363     
 total        electrons   200.07062869834363     
 total        electrons   200.07062869834363     
 total        electrons   200.07062869834363     
 total        electrons   200.07062869834363     
 total        electrons   200.07062869834363     
 total        electrons   200.07062869834363     
 total        electrons   200.07062869834363     
 total        electrons   200.07062869834363     
 total        electrons   200.07062869834363     
 total        electrons   200.07062869834363     
 total        electrons   200.07062869834363     
 total        electrons   200.07062869834363     
 total        electrons   200.07062869834363     
 total        electrons   200.07062869834363     
Note: The following floating-point exceptions are signalling: IEEE_OVERFLOW_FLAG
Note: The following floating-point exceptions are signalling: IEEE_OVERFLOW_FLAG
Note: The following floating-point exceptions are signalling: IEEE_OVERFLOW_FLAG
Note: The following floating-point exceptions are signalling: IEEE_OVERFLOW_FLAG
Note: The following floating-point exceptions are signalling: IEEE_OVERFLOW_FLAG
Note: The following floating-point exceptions are signalling: IEEE_OVERFLOW_FLAG
Note: The following floating-point exceptions are signalling: IEEE_OVERFLOW_FLAG
Note: The following floating-point exceptions are signalling: IEEE_OVERFLOW_FLAG
Note: The following floating-point exceptions are signalling: IEEE_OVERFLOW_FLAG
Note: The following floating-point exceptions are signalling: IEEE_OVERFLOW_FLAG
Note: The following floating-point exceptions are signalling: IEEE_OVERFLOW_FLAG
Note: The following floating-point exceptions are signalling: IEEE_OVERFLOW_FLAG
Note: The following floating-point exceptions are signalling: IEEE_OVERFLOW_FLAG
Note: The following floating-point exceptions are signalling: IEEE_OVERFLOW_FLAG
Note: The following floating-point exceptions are signalling: IEEE_OVERFLOW_FLAG
Note: The following floating-point exceptions are signalling: IEEE_OVERFLOW_FLAG
Note: The following floating-point exceptions are signalling: IEEE_OVERFLOW_FLAG
Note: The following floating-point exceptions are signalling: IEEE_OVERFLOW_FLAG
Note: The following floating-point exceptions are signalling: IEEE_OVERFLOW_FLAG
Note: The following floating-point exceptions are signalling: IEEE_OVERFLOW_FLAG
Note: The following floating-point exceptions are signalling: IEEE_OVERFLOW_FLAG
Note: The following floating-point exceptions are signalling: IEEE_OVERFLOW_FLAG
Note: The following floating-point exceptions are signalling: IEEE_OVERFLOW_FLAG
Note: The following floating-point exceptions are signalling: IEEE_OVERFLOW_FLAG
Note: The following floating-point exceptions are signalling: IEEE_OVERFLOW_FLAG
Note: The following floating-point exceptions are signalling: IEEE_OVERFLOW_FLAG
Note: The following floating-point exceptions are signalling: IEEE_OVERFLOW_FLAG
Note: The following floating-point exceptions are signalling: IEEE_OVERFLOW_FLAG
Note: The following floating-point exceptions are signalling: IEEE_OVERFLOW_FLAG
Note: The following floating-point exceptions are signalling: IEEE_OVERFLOW_FLAG
Note: The following floating-point exceptions are signalling: IEEE_OVERFLOW_FLAG
Note: The following floating-point exceptions are signalling: IEEE_OVERFLOW_FLAG
Note: The following floating-point exceptions are signalling: IEEE_OVERFLOW_FLAG
Note: The following floating-point exceptions are signalling: IEEE_OVERFLOW_FLAG
Note: The following floating-point exceptions are signalling: IEEE_OVERFLOW_FLAG
Note: The following floating-point exceptions are signalling: IEEE_OVERFLOW_FLAG
Note: The following floating-point exceptions are signalling: IEEE_OVERFLOW_FLAG
Note: The following floating-point exceptions are signalling: IEEE_OVERFLOW_FLAG
Note: The following floating-point exceptions are signalling: IEEE_OVERFLOW_FLAG
Note: The following floating-point exceptions are signalling: IEEE_OVERFLOW_FLAG
Note: The following floating-point exceptions are signalling: IEEE_OVERFLOW_FLAG
Note: The following floating-point exceptions are signalling: IEEE_OVERFLOW_FLAG
Note: The following floating-point exceptions are signalling: IEEE_OVERFLOW_FLAG
Note: The following floating-point exceptions are signalling: IEEE_OVERFLOW_FLAG
Note: The following floating-point exceptions are signalling: IEEE_OVERFLOW_FLAG
Note: The following floating-point exceptions are signalling: IEEE_OVERFLOW_FLAG
Note: The following floating-point exceptions are signalling: IEEE_OVERFLOW_FLAG
Note: The following floating-point exceptions are signalling: IEEE_OVERFLOW_FLAG
Note: The following floating-point exceptions are signalling: IEEE_OVERFLOW_FLAG
Note: The following floating-point exceptions are signalling: IEEE_OVERFLOW_FLAG
Note: The following floating-point exceptions are signalling: IEEE_OVERFLOW_FLAG
Note: The following floating-point exceptions are signalling: IEEE_OVERFLOW_FLAG
Note: The following floating-point exceptions are signalling: IEEE_OVERFLOW_FLAG
Note: The following floating-point exceptions are signalling: IEEE_OVERFLOW_FLAG
