   73   73    1    1
  0.2139262E+02  0.1053953E-08  0.6141200E-09  0.2412750E-08  0.5000000E-15
   1.0000000000000000E-004
  CAR 
 Name                                    
    283     23    184

  0.3742002E-15  0.3742002E-15  0.1262379E-14  0.2222222E-01
    1      -13.973474   1.000000
    2      -12.835789   1.000000
    3      -12.795037   1.000000
    4      -12.730302   1.000000
    5      -11.814857   1.000000
    6      -11.691892   1.000000
    7      -11.632570   1.000000
    8      -11.595993   1.000000
    9      -11.414760   1.000000
   10      -11.293750   1.000000
   11      -11.200938   1.000000
   12      -11.070515   1.000000
   13      -11.048676   1.000000
   14      -10.721135   1.000000
   15      -10.551451   1.000000
   16      -10.384509   1.000000
   17      -10.149253   1.000000
   18      -10.128899   1.000000
   19       -9.985656   1.000000
   20       -9.751231   1.000000
   21       -9.659839   1.000000
   22       -9.516738   1.000000
   23       -9.465610   1.000000
   24       -9.346223   1.000000
   25       -8.999314   1.000000
   26       -8.886943   1.000000
   27       -8.705959   1.000000
   28       -8.442067   1.000000
   29       -8.372409   1.000000
   30       -8.317982   1.000000
   31       -8.154473   1.000000
   32       -7.832464   1.000000
   33       -7.831244   1.000000
   34       -7.459548   1.000000
   35       -7.250760   1.000000
   36       -7.191004   1.000000
   37       -7.059520   1.000000
   38       -7.002237   1.000000
   39       -6.925581   1.000000
   40       -6.745260   1.000000
   41       -6.716912   1.000000
   42       -6.621519   1.000000
   43       -6.592599   1.000000
   44       -6.521846   1.000000
   45       -6.452604   1.000000
   46       -6.444396   1.000000
   47       -6.379880   1.000000
   48       -6.229324   1.000000
   49       -6.109875   1.000000
   50       -6.076463   1.000000
   51       -5.932350   1.000000
   52       -5.832282   1.000000
   53       -5.780866   1.000000
   54       -5.709758   1.000000
   55       -5.594436   1.000000
   56       -5.560529   1.000000
   57       -5.542647   1.000000
   58       -5.362152   1.000000
   59       -5.308650   1.000000
   60       -5.279550   1.000000
   61       -5.177441   1.000000
   62       -4.963786   1.000000
   63       -4.901009   1.000000
   64       -4.710848   1.000000
   65       -4.694902   1.000000
   66       -4.652487   1.000000
   67       -4.635770   1.000000
   68       -4.588673   1.000000
   69       -4.575883   1.000000
   70       -4.424850   1.000000
   71       -4.360893   1.000000
   72       -4.252297   1.000000
   73       -4.218553   1.000000
   74       -4.125527   1.000000
   75       -4.121663   1.000000
   76       -4.061751   1.000000
   77       -3.977766   1.000000
   78       -3.936114   1.000000
   79       -3.930998   1.000000
   80       -3.912198   1.000000
   81       -3.857304   1.000000
   82       -3.840916   1.000000
   83       -3.824629   1.000000
   84       -3.822800   1.000000
   85       -3.723430   1.000000
   86       -3.627621   1.000000
   87       -3.582615   1.000000
   88       -3.563376   1.000000
   89       -3.555503   1.000000
   90       -3.475043   1.000000
   91       -3.360571   1.000000
   92       -3.190863   1.000000
   93       -3.056231   1.000000
   94       -3.038183   1.000000
   95       -2.998723   1.000000
   96       -2.833739   1.000000
   97       -2.818877   1.000000
   98       -2.772445   1.000000
   99       -2.731354   1.000000
  100       -2.706731   1.000000
  101       -2.580672   1.000000
  102       -2.400467   1.000000
  103       -2.389332   1.000000
  104       -2.383660   1.000000
  105       -2.360735   1.000000
  106       -2.271135   1.000000
  107       -2.133090   1.000000
  108       -2.119323   1.000000
  109       -2.082169   1.000000
  110       -2.053621   1.000000
  111       -1.974474   1.000000
  112       -1.926295   1.000000
  113       -1.907242   1.000000
  114       -1.867121   1.000000
  115       -1.769295   1.000000
  116       -1.697670   1.000000
  117       -1.618637   1.000000
  118       -1.618614   1.000000
  119       -1.595917   1.000000
  120       -1.463117   1.000000
  121       -1.154386   1.000000
  122       -1.043521   1.000000
  123       -0.979660   1.000000
  124       -0.824842   1.000000
  125       -0.812398   1.000000
  126       -0.693485   1.000000
  127       -0.692732   1.000000
  128       -0.435248   1.000000
  129       -0.359583   1.000000
  130       -0.346096   1.000000
  131       -0.187605   1.000000
  132       -0.162737   1.000000
  133       -0.095373   1.000000
  134        0.012346   1.000000
  135        0.197732   1.000316
  136        0.239658   1.002183
  137        0.327776   1.028915
  138        0.344081   1.034503
  139        0.354845   1.035364
  140        0.370612   1.029020
  141        0.424095   0.874459
  142        0.546108   0.035961
  143        0.572119  -0.022001
  144        0.579125  -0.028979
  145        0.608645  -0.033785
  146        0.633396  -0.023759
  147        0.670419  -0.009214
  148        0.679033  -0.006978
  149        0.797165  -0.000025
  150        0.828644  -0.000003
  151        1.040421  -0.000000
  152        1.138815  -0.000000
  153        1.191330  -0.000000
  154        1.197622  -0.000000
  155        1.258609  -0.000000
  156        1.287363  -0.000000
  157        1.347795  -0.000000
  158        1.351611  -0.000000
  159        1.366600  -0.000000
  160        1.414943  -0.000000
  161        1.457858  -0.000000
  162        1.485750  -0.000000
  163        1.522334  -0.000000
  164        1.591705  -0.000000
  165        1.647897  -0.000000
  166        1.711942  -0.000000
  167        1.733856  -0.000000
  168        1.735431  -0.000000
  169        1.746399  -0.000000
  170        1.791671  -0.000000
  171        1.806850  -0.000000
  172        1.830307  -0.000000
  173        1.871806  -0.000000
  174        1.897059  -0.000000
  175        2.041168  -0.000000
  176        2.197798  -0.000000
  177        2.292549  -0.000000
  178        2.358877  -0.000000
  179        2.374943  -0.000000
  180        2.471691  -0.000000
  181        2.580648  -0.000000
  182        2.906078  -0.000000
  183        3.022889  -0.000000
  184        3.446781   0.000000

  0.2000000E+00  0.3742002E-15  0.1262379E-14  0.4444444E-01
    1      -13.924930   1.000000
    2      -13.218112   1.000000
    3      -12.695091   1.000000
    4      -12.331824   1.000000
    5      -12.036051   1.000000
    6      -11.803529   1.000000
    7      -11.647981   1.000000
    8      -11.352310   1.000000
    9      -11.315178   1.000000
   10      -11.231666   1.000000
   11      -11.132967   1.000000
   12      -11.113465   1.000000
   13      -10.957940   1.000000
   14      -10.787921   1.000000
   15      -10.646369   1.000000
   16      -10.569544   1.000000
   17      -10.515247   1.000000
   18      -10.187401   1.000000
   19       -9.735543   1.000000
   20       -9.704664   1.000000
   21       -9.534534   1.000000
   22       -9.484131   1.000000
   23       -9.436907   1.000000
   24       -9.382133   1.000000
   25       -9.163146   1.000000
   26       -8.887993   1.000000
   27       -8.536044   1.000000
   28       -8.362837   1.000000
   29       -8.272731   1.000000
   30       -8.132009   1.000000
   31       -8.119470   1.000000
   32       -8.081032   1.000000
   33       -7.715559   1.000000
   34       -7.496439   1.000000
   35       -7.416614   1.000000
   36       -7.265813   1.000000
   37       -7.186314   1.000000
   38       -7.128225   1.000000
   39       -6.982103   1.000000
   40       -6.822680   1.000000
   41       -6.684321   1.000000
   42       -6.664140   1.000000
   43       -6.598698   1.000000
   44       -6.545268   1.000000
   45       -6.487326   1.000000
   46       -6.402159   1.000000
   47       -6.178472   1.000000
   48       -6.159522   1.000000
   49       -6.090005   1.000000
   50       -6.030070   1.000000
   51       -5.983351   1.000000
   52       -5.768045   1.000000
   53       -5.684332   1.000000
   54       -5.616227   1.000000
   55       -5.579924   1.000000
   56       -5.484031   1.000000
   57       -5.452508   1.000000
   58       -5.364468   1.000000
   59       -5.356495   1.000000
   60       -5.318608   1.000000
   61       -5.183135   1.000000
   62       -5.087936   1.000000
   63       -4.869587   1.000000
   64       -4.817530   1.000000
   65       -4.688147   1.000000
   66       -4.666446   1.000000
   67       -4.652112   1.000000
   68       -4.634934   1.000000
   69       -4.573089   1.000000
   70       -4.329811   1.000000
   71       -4.316679   1.000000
   72       -4.223514   1.000000
   73       -4.189190   1.000000
   74       -4.173892   1.000000
   75       -4.124022   1.000000
   76       -4.098000   1.000000
   77       -3.998575   1.000000
   78       -3.949187   1.000000
   79       -3.932838   1.000000
   80       -3.917038   1.000000
   81       -3.890996   1.000000
   82       -3.870286   1.000000
   83       -3.802102   1.000000
   84       -3.796243   1.000000
   85       -3.615117   1.000000
   86       -3.603471   1.000000
   87       -3.589489   1.000000
   88       -3.548952   1.000000
   89       -3.534605   1.000000
   90       -3.493088   1.000000
   91       -3.422144   1.000000
   92       -3.169969   1.000000
   93       -3.131251   1.000000
   94       -3.097610   1.000000
   95       -3.027848   1.000000
   96       -2.998744   1.000000
   97       -2.863754   1.000000
   98       -2.811882   1.000000
   99       -2.733839   1.000000
  100       -2.722412   1.000000
  101       -2.602979   1.000000
  102       -2.408025   1.000000
  103       -2.326899   1.000000
  104       -2.260589   1.000000
  105       -2.242053   1.000000
  106       -2.197207   1.000000
  107       -2.190043   1.000000
  108       -2.125648   1.000000
  109       -2.063401   1.000000
  110       -1.990780   1.000000
  111       -1.944685   1.000000
  112       -1.923858   1.000000
  113       -1.860351   1.000000
  114       -1.762328   1.000000
  115       -1.715997   1.000000
  116       -1.705375   1.000000
  117       -1.652886   1.000000
  118       -1.584438   1.000000
  119       -1.473308   1.000000
  120       -1.378005   1.000000
  121       -1.167721   1.000000
  122       -1.088069   1.000000
  123       -1.052361   1.000000
  124       -0.895016   1.000000
  125       -0.865554   1.000000
  126       -0.765328   1.000000
  127       -0.695955   1.000000
  128       -0.529821   1.000000
  129       -0.440636   1.000000
  130       -0.436832   1.000000
  131       -0.356101   1.000000
  132       -0.238241   1.000000
  133       -0.172213   1.000000
  134       -0.066997   1.000000
  135        0.067702   1.000000
  136        0.156672   1.000033
  137        0.323965   1.027235
  138        0.348125   1.035190
  139        0.388441   1.004767
  140        0.434913   0.810230
  141        0.526467   0.121391
  142        0.531996   0.093417
  143        0.622244  -0.028816
  144        0.686600  -0.005379
  145        0.691588  -0.004494
  146        0.711573  -0.002057
  147        0.714674  -0.001806
  148        0.719798  -0.001450
  149        0.762410  -0.000185
  150        0.780565  -0.000068
  151        1.116240  -0.000000
  152        1.172492  -0.000000
  153        1.226183  -0.000000
  154        1.240008  -0.000000
  155        1.300134  -0.000000
  156        1.308394  -0.000000
  157        1.331830  -0.000000
  158        1.340430  -0.000000
  159        1.445702  -0.000000
  160        1.456183  -0.000000
  161        1.512658  -0.000000
  162        1.530151  -0.000000
  163        1.572844  -0.000000
  164        1.606201  -0.000000
  165        1.661152  -0.000000
  166        1.681044  -0.000000
  167        1.697253  -0.000000
  168        1.744719  -0.000000
  169        1.773957  -0.000000
  170        1.810944  -0.000000
  171        1.853583  -0.000000
  172        1.899626  -0.000000
  173        1.919632  -0.000000
  174        2.040095  -0.000000
  175        2.087722  -0.000000
  176        2.215862  -0.000000
  177        2.284691  -0.000000
  178        2.389445  -0.000000
  179        2.482780  -0.000000
  180        2.561845  -0.000000
  181        2.707309  -0.000000
  182        3.077523  -0.000000
  183        3.286359   0.000000
  184        3.788189   0.000000

  0.4000000E+00  0.3742002E-15  0.1262379E-14  0.4444444E-01
    1      -13.780471   1.000000
    2      -13.542732   1.000000
    3      -12.564012   1.000000
    4      -12.335847   1.000000
    5      -11.792522   1.000000
    6      -11.771618   1.000000
    7      -11.718520   1.000000
    8      -11.301874   1.000000
    9      -11.256312   1.000000
   10      -11.207324   1.000000
   11      -11.118658   1.000000
   12      -11.081815   1.000000
   13      -10.939852   1.000000
   14      -10.846222   1.000000
   15      -10.820399   1.000000
   16      -10.671911   1.000000
   17      -10.643429   1.000000
   18      -10.246326   1.000000
   19      -10.015694   1.000000
   20       -9.647278   1.000000
   21       -9.556772   1.000000
   22       -9.417999   1.000000
   23       -9.308878   1.000000
   24       -9.274162   1.000000
   25       -9.102946   1.000000
   26       -8.835022   1.000000
   27       -8.479064   1.000000
   28       -8.291910   1.000000
   29       -8.182619   1.000000
   30       -7.903520   1.000000
   31       -7.888528   1.000000
   32       -7.877616   1.000000
   33       -7.828555   1.000000
   34       -7.731345   1.000000
   35       -7.620104   1.000000
   36       -7.585464   1.000000
   37       -7.388843   1.000000
   38       -7.293955   1.000000
   39       -7.144824   1.000000
   40       -6.927961   1.000000
   41       -6.679352   1.000000
   42       -6.548951   1.000000
   43       -6.529214   1.000000
   44       -6.500685   1.000000
   45       -6.429170   1.000000
   46       -6.309676   1.000000
   47       -6.190947   1.000000
   48       -6.066268   1.000000
   49       -6.017866   1.000000
   50       -5.958602   1.000000
   51       -5.851486   1.000000
   52       -5.833664   1.000000
   53       -5.728516   1.000000
   54       -5.686495   1.000000
   55       -5.616555   1.000000
   56       -5.486161   1.000000
   57       -5.338646   1.000000
   58       -5.326873   1.000000
   59       -5.324897   1.000000
   60       -5.145476   1.000000
   61       -5.077604   1.000000
   62       -5.040638   1.000000
   63       -4.895009   1.000000
   64       -4.866596   1.000000
   65       -4.805236   1.000000
   66       -4.745876   1.000000
   67       -4.682287   1.000000
   68       -4.604625   1.000000
   69       -4.476402   1.000000
   70       -4.412401   1.000000
   71       -4.374287   1.000000
   72       -4.291285   1.000000
   73       -4.225955   1.000000
   74       -4.151946   1.000000
   75       -4.125974   1.000000
   76       -4.091316   1.000000
   77       -4.059011   1.000000
   78       -3.956271   1.000000
   79       -3.938597   1.000000
   80       -3.917496   1.000000
   81       -3.860956   1.000000
   82       -3.829134   1.000000
   83       -3.784482   1.000000
   84       -3.701457   1.000000
   85       -3.626508   1.000000
   86       -3.619343   1.000000
   87       -3.576782   1.000000
   88       -3.560660   1.000000
   89       -3.417990   1.000000
   90       -3.412851   1.000000
   91       -3.318359   1.000000
   92       -3.269857   1.000000
   93       -3.265285   1.000000
   94       -3.245051   1.000000
   95       -3.168544   1.000000
   96       -3.082774   1.000000
   97       -2.960201   1.000000
   98       -2.901493   1.000000
   99       -2.825188   1.000000
  100       -2.733347   1.000000
  101       -2.509676   1.000000
  102       -2.399695   1.000000
  103       -2.363853   1.000000
  104       -2.264798   1.000000
  105       -2.250065   1.000000
  106       -2.097468   1.000000
  107       -2.038486   1.000000
  108       -2.011643   1.000000
  109       -1.943245   1.000000
  110       -1.858496   1.000000
  111       -1.843942   1.000000
  112       -1.828556   1.000000
  113       -1.791224   1.000000
  114       -1.762753   1.000000
  115       -1.732220   1.000000
  116       -1.651183   1.000000
  117       -1.528269   1.000000
  118       -1.368902   1.000000
  119       -1.348323   1.000000
  120       -1.263137   1.000000
  121       -1.245096   1.000000
  122       -1.193377   1.000000
  123       -1.109964   1.000000
  124       -1.073355   1.000000
  125       -0.987621   1.000000
  126       -0.842933   1.000000
  127       -0.819985   1.000000
  128       -0.770280   1.000000
  129       -0.716588   1.000000
  130       -0.625208   1.000000
  131       -0.431869   1.000000
  132       -0.385940   1.000000
  133       -0.175814   1.000000
  134       -0.140542   1.000000
  135        0.027834   1.000000
  136        0.258654   1.004569
  137        0.281372   1.009800
  138        0.310505   1.021050
  139        0.319238   1.025076
  140        0.387083   1.007422
  141        0.476516   0.486282
  142        0.549520   0.025009
  143        0.597701  -0.035456
  144        0.703309  -0.002875
  145        0.704842  -0.002705
  146        0.735268  -0.000719
  147        0.801949  -0.000019
  148        0.862094  -0.000000
  149        0.968248  -0.000000
  150        0.976993  -0.000000
  151        1.100882  -0.000000
  152        1.136101  -0.000000
  153        1.241533  -0.000000
  154        1.269231  -0.000000
  155        1.353375  -0.000000
  156        1.404410  -0.000000
  157        1.415425  -0.000000
  158        1.514110  -0.000000
  159        1.525009  -0.000000
  160        1.550901  -0.000000
  161        1.567719  -0.000000
  162        1.595206  -0.000000
  163        1.627460  -0.000000
  164        1.639410  -0.000000
  165        1.670779  -0.000000
  166        1.693903  -0.000000
  167        1.718466  -0.000000
  168        1.751121  -0.000000
  169        1.802164  -0.000000
  170        1.820764  -0.000000
  171        1.831972  -0.000000
  172        1.874846  -0.000000
  173        1.915129  -0.000000
  174        1.970565  -0.000000
  175        2.038160  -0.000000
  176        2.056838  -0.000000
  177        2.113652  -0.000000
  178        2.185893  -0.000000
  179        2.364609  -0.000000
  180        2.468806  -0.000000
  181        2.696643  -0.000000
  182        2.834020  -0.000000
  183        3.110406  -0.000000
  184        3.326968   0.000000

  0.3742002E-15  0.1111111E+00  0.1262379E-14  0.4444444E-01
    1      -13.926753   1.000000
    2      -12.796258   1.000000
    3      -12.761423   1.000000
    4      -12.692077   1.000000
    5      -11.919026   1.000000
    6      -11.669778   1.000000
    7      -11.628574   1.000000
    8      -11.601564   1.000000
    9      -11.453829   1.000000
   10      -11.331565   1.000000
   11      -11.185427   1.000000
   12      -11.079140   1.000000
   13      -11.052944   1.000000
   14      -10.693258   1.000000
   15      -10.565018   1.000000
   16      -10.390303   1.000000
   17      -10.127058   1.000000
   18      -10.090450   1.000000
   19       -9.976207   1.000000
   20       -9.725391   1.000000
   21       -9.693861   1.000000
   22       -9.546043   1.000000
   23       -9.479671   1.000000
   24       -9.344852   1.000000
   25       -8.983536   1.000000
   26       -8.908963   1.000000
   27       -8.691314   1.000000
   28       -8.444775   1.000000
   29       -8.353611   1.000000
   30       -8.338653   1.000000
   31       -8.007495   1.000000
   32       -7.880858   1.000000
   33       -7.846099   1.000000
   34       -7.511735   1.000000
   35       -7.359665   1.000000
   36       -7.283806   1.000000
   37       -7.033983   1.000000
   38       -6.980846   1.000000
   39       -6.913683   1.000000
   40       -6.687435   1.000000
   41       -6.639760   1.000000
   42       -6.630847   1.000000
   43       -6.597839   1.000000
   44       -6.525953   1.000000
   45       -6.432966   1.000000
   46       -6.428240   1.000000
   47       -6.392909   1.000000
   48       -6.229031   1.000000
   49       -6.150680   1.000000
   50       -6.040831   1.000000
   51       -5.927477   1.000000
   52       -5.795957   1.000000
   53       -5.788381   1.000000
   54       -5.652217   1.000000
   55       -5.619654   1.000000
   56       -5.540201   1.000000
   57       -5.536259   1.000000
   58       -5.287395   1.000000
   59       -5.257832   1.000000
   60       -5.248615   1.000000
   61       -5.153893   1.000000
   62       -4.972224   1.000000
   63       -4.866837   1.000000
   64       -4.784041   1.000000
   65       -4.652566   1.000000
   66       -4.638520   1.000000
   67       -4.598022   1.000000
   68       -4.580038   1.000000
   69       -4.562508   1.000000
   70       -4.393314   1.000000
   71       -4.361871   1.000000
   72       -4.291720   1.000000
   73       -4.239485   1.000000
   74       -4.155359   1.000000
   75       -4.132178   1.000000
   76       -4.070762   1.000000
   77       -4.061929   1.000000
   78       -4.045353   1.000000
   79       -4.002360   1.000000
   80       -3.970817   1.000000
   81       -3.951589   1.000000
   82       -3.837980   1.000000
   83       -3.768164   1.000000
   84       -3.754977   1.000000
   85       -3.741708   1.000000
   86       -3.680013   1.000000
   87       -3.614313   1.000000
   88       -3.588259   1.000000
   89       -3.518564   1.000000
   90       -3.500212   1.000000
   91       -3.454917   1.000000
   92       -3.244762   1.000000
   93       -3.025263   1.000000
   94       -2.988597   1.000000
   95       -2.926165   1.000000
   96       -2.835314   1.000000
   97       -2.755167   1.000000
   98       -2.740672   1.000000
   99       -2.700951   1.000000
  100       -2.696375   1.000000
  101       -2.597832   1.000000
  102       -2.498878   1.000000
  103       -2.497024   1.000000
  104       -2.380625   1.000000
  105       -2.319749   1.000000
  106       -2.260447   1.000000
  107       -2.206576   1.000000
  108       -2.145585   1.000000
  109       -2.102510   1.000000
  110       -2.027810   1.000000
  111       -2.022821   1.000000
  112       -1.968507   1.000000
  113       -1.952137   1.000000
  114       -1.829634   1.000000
  115       -1.791186   1.000000
  116       -1.719457   1.000000
  117       -1.580756   1.000000
  118       -1.580102   1.000000
  119       -1.529874   1.000000
  120       -1.389717   1.000000
  121       -1.189755   1.000000
  122       -0.991698   1.000000
  123       -0.985687   1.000000
  124       -0.854967   1.000000
  125       -0.788531   1.000000
  126       -0.719642   1.000000
  127       -0.665108   1.000000
  128       -0.604090   1.000000
  129       -0.491507   1.000000
  130       -0.291152   1.000000
  131       -0.215428   1.000000
  132       -0.183996   1.000000
  133       -0.019977   1.000000
  134        0.030728   1.000000
  135        0.145421   1.000016
  136        0.221769   1.001006
  137        0.274626   1.007925
  138        0.284368   1.010726
  139        0.289430   1.012421
  140        0.327106   1.028626
  141        0.432010   0.828558
  142        0.441651   0.764836
  143        0.587158  -0.033619
  144        0.592994  -0.035145
  145        0.597449  -0.035458
  146        0.715609  -0.001736
  147        0.755503  -0.000265
  148        0.787608  -0.000045
  149        0.824174  -0.000005
  150        1.013786  -0.000000
  151        1.105885  -0.000000
  152        1.121425  -0.000000
  153        1.131053  -0.000000
  154        1.269937  -0.000000
  155        1.280320  -0.000000
  156        1.297296  -0.000000
  157        1.342203  -0.000000
  158        1.351233  -0.000000
  159        1.439888  -0.000000
  160        1.469829  -0.000000
  161        1.473906  -0.000000
  162        1.488484  -0.000000
  163        1.497670  -0.000000
  164        1.526335  -0.000000
  165        1.620870  -0.000000
  166        1.667735  -0.000000
  167        1.695594  -0.000000
  168        1.747174  -0.000000
  169        1.781495  -0.000000
  170        1.793932  -0.000000
  171        1.843641  -0.000000
  172        1.867669  -0.000000
  173        1.880231  -0.000000
  174        1.911956  -0.000000
  175        1.978033  -0.000000
  176        2.027192  -0.000000
  177        2.074378  -0.000000
  178        2.098595  -0.000000
  179        2.231546  -0.000000
  180        2.356737  -0.000000
  181        2.436634  -0.000000
  182        2.560304  -0.000000
  183        2.564367  -0.000000
  184        3.685104   0.000000

  0.2000000E+00  0.1111111E+00  0.1262379E-14  0.4444444E-01
    1      -13.878613   1.000000
    2      -13.177934   1.000000
    3      -12.656498   1.000000
    4      -12.300509   1.000000
    5      -12.005510   1.000000
    6      -11.901711   1.000000
    7      -11.701485   1.000000
    8      -11.373572   1.000000
    9      -11.337241   1.000000
   10      -11.228802   1.000000
   11      -11.142276   1.000000
   12      -11.100676   1.000000
   13      -10.956167   1.000000
   14      -10.767136   1.000000
   15      -10.639276   1.000000
   16      -10.554721   1.000000
   17      -10.514924   1.000000
   18      -10.184127   1.000000
   19       -9.720576   1.000000
   20       -9.694441   1.000000
   21       -9.561324   1.000000
   22       -9.486521   1.000000
   23       -9.439965   1.000000
   24       -9.385187   1.000000
   25       -9.165914   1.000000
   26       -8.881336   1.000000
   27       -8.544019   1.000000
   28       -8.362606   1.000000
   29       -8.267654   1.000000
   30       -8.146795   1.000000
   31       -8.122996   1.000000
   32       -7.930860   1.000000
   33       -7.762586   1.000000
   34       -7.576972   1.000000
   35       -7.476460   1.000000
   36       -7.312975   1.000000
   37       -7.120070   1.000000
   38       -7.083021   1.000000
   39       -6.965878   1.000000
   40       -6.804355   1.000000
   41       -6.693957   1.000000
   42       -6.635640   1.000000
   43       -6.623533   1.000000
   44       -6.582005   1.000000
   45       -6.537823   1.000000
   46       -6.488403   1.000000
   47       -6.191507   1.000000
   48       -6.133394   1.000000
   49       -6.065260   1.000000
   50       -5.949344   1.000000
   51       -5.904064   1.000000
   52       -5.770087   1.000000
   53       -5.685711   1.000000
   54       -5.630200   1.000000
   55       -5.534427   1.000000
   56       -5.485427   1.000000
   57       -5.462427   1.000000
   58       -5.343624   1.000000
   59       -5.289062   1.000000
   60       -5.250904   1.000000
   61       -5.160512   1.000000
   62       -5.071598   1.000000
   63       -4.852170   1.000000
   64       -4.807379   1.000000
   65       -4.709109   1.000000
   66       -4.647681   1.000000
   67       -4.616193   1.000000
   68       -4.571411   1.000000
   69       -4.543307   1.000000
   70       -4.351538   1.000000
   71       -4.343120   1.000000
   72       -4.246523   1.000000
   73       -4.204331   1.000000
   74       -4.151900   1.000000
   75       -4.141209   1.000000
   76       -4.121442   1.000000
   77       -4.096588   1.000000
   78       -4.051039   1.000000
   79       -4.016551   1.000000
   80       -3.989973   1.000000
   81       -3.919420   1.000000
   82       -3.858591   1.000000
   83       -3.815332   1.000000
   84       -3.767076   1.000000
   85       -3.657581   1.000000
   86       -3.634775   1.000000
   87       -3.603035   1.000000
   88       -3.587769   1.000000
   89       -3.551113   1.000000
   90       -3.484778   1.000000
   91       -3.391197   1.000000
   92       -3.208260   1.000000
   93       -3.133956   1.000000
   94       -3.033569   1.000000
   95       -2.994901   1.000000
   96       -2.928512   1.000000
   97       -2.882954   1.000000
   98       -2.829279   1.000000
   99       -2.765320   1.000000
  100       -2.724182   1.000000
  101       -2.592039   1.000000
  102       -2.448209   1.000000
  103       -2.361650   1.000000
  104       -2.347055   1.000000
  105       -2.271875   1.000000
  106       -2.249542   1.000000
  107       -2.140256   1.000000
  108       -2.076169   1.000000
  109       -2.053540   1.000000
  110       -2.036686   1.000000
  111       -1.977984   1.000000
  112       -1.920382   1.000000
  113       -1.851572   1.000000
  114       -1.814280   1.000000
  115       -1.757818   1.000000
  116       -1.715544   1.000000
  117       -1.694140   1.000000
  118       -1.567561   1.000000
  119       -1.408342   1.000000
  120       -1.327188   1.000000
  121       -1.228624   1.000000
  122       -1.067871   1.000000
  123       -0.998680   1.000000
  124       -0.927155   1.000000
  125       -0.885235   1.000000
  126       -0.812352   1.000000
  127       -0.748792   1.000000
  128       -0.640224   1.000000
  129       -0.434872   1.000000
  130       -0.386395   1.000000
  131       -0.227245   1.000000
  132       -0.180438   1.000000
  133       -0.052871   1.000000
  134        0.012833   1.000000
  135        0.063595   1.000000
  136        0.081758   1.000000
  137        0.186479   1.000176
  138        0.260975   1.004970
  139        0.294649   1.014337
  140        0.466057   0.574471
  141        0.471726   0.526802
  142        0.518720   0.165673
  143        0.538577   0.064145
  144        0.618940  -0.030205
  145        0.649791  -0.016468
  146        0.692713  -0.004312
  147        0.777856  -0.000079
  148        0.875198  -0.000000
  149        0.906644  -0.000000
  150        0.936526  -0.000000
  151        1.075151  -0.000000
  152        1.149818  -0.000000
  153        1.229058  -0.000000
  154        1.291695  -0.000000
  155        1.333570  -0.000000
  156        1.364603  -0.000000
  157        1.382773  -0.000000