    3    3   60    1
  0.8144830E+01  0.3039000E-09  0.3039000E-09  0.3055000E-09  0.5000000E-15
   1.0000000000000000E-004
  CAR 
 Name                                    
     12    216     10

  0.3742002E-15  0.3742002E-15  0.3742002E-15  0.2962963E-03
    1       -5.375291   1.000000
    2        4.837667   1.000000
    3        4.837670   1.000000
    4        4.863308   1.000000
    5        6.449102   1.000000
    6        9.942385   1.003875
    7        9.942386   1.003875
    8       12.759522  -0.000000
    9       12.759527  -0.000000
   10       14.612365   0.000000

  0.6666667E-01  0.3766815E-15  0.3742002E-15  0.1777778E-02
    1       -5.283232   1.000000
    2        4.618718   1.000000
    3        4.881241   1.000000
    4        4.931172   1.000000
    5        6.206970   1.000000
    6        9.900141   1.000637
    7       10.271841  -0.031999
    8       12.210813  -0.000000
    9       12.303972  -0.000000
   10       15.098119   0.000000

  0.1333333E+00  0.3754153E-15  0.3742002E-15  0.1777778E-02
    1       -5.011658   1.000000
    2        4.037305   1.000000
    3        4.994996   1.000000
    4        5.101087   1.000000
    5        5.677348   1.000000
    6        9.783067   1.000001
    7       11.030680  -0.000000
    8       11.316327  -0.000000
    9       11.645457  -0.000000
   10       15.807224   0.000000

  0.2000000E+00  0.3870416E-15  0.3742002E-15  0.1777778E-02
    1       -4.573718   1.000000
    2        3.240558   1.000000
    3        5.105235   1.000000
    4        5.132790   1.000000
    5        5.263478   1.000000
    6        9.616603   1.000000
    7       10.645660  -0.000000
    8       11.189845  -0.000000
    9       11.848561  -0.000000
   10       16.304940   0.000000

  0.2666667E+00  0.4120044E-15  0.3742002E-15  0.1777778E-02
    1       -3.989298   1.000000
    2        2.341239   1.000000
    3        4.600434   1.000000
    4        5.240436   1.000000
    5        5.264297   1.000000
    6        9.433535   1.000000
    7       10.476542  -0.000043
    8       11.010844  -0.000000
    9       12.358924  -0.000000
   10       16.533069   0.000000

  0.3333333E+00  0.4025434E-15  0.3742002E-15  0.1777778E-02
    1       -3.283652   1.000000
    2        1.400051   1.000000
    3        4.205374   1.000000
    4        5.063495   1.000000
    5        5.288645   1.000000
    6        9.265748   1.000000
    7       10.876616  -0.000000
    8       11.076476  -0.000000
    9       12.384042  -0.000000
   10       16.732751   0.000000

  0.4000000E+00  0.3732510E-15  0.3742002E-15  0.1777778E-02
    1       -2.490584   1.000000
    2        0.454035   1.000000
    3        3.937021   1.000000
    4        4.801871   1.000000
    5        5.290194   1.000000
    6        9.139175   1.000000
    7       11.267498  -0.000000
    8       11.631746  -0.000000
    9       12.182159  -0.000000
   10       16.716352   0.000000

  0.4666667E+00  0.3915456E-15  0.3742002E-15  0.1777778E-02
    1       -1.700797   1.000000
    2       -0.410868   1.000000
    3        3.801762   1.000000
    4        4.633542   1.000000
    5        5.278804   1.000000
    6        9.071478   1.000000
    7       11.422503  -0.000000
    8       12.026911  -0.000000
    9       12.305399  -0.000000
   10       16.548226   0.000000

  0.6666667E-01  0.6666667E-01  0.3742002E-15  0.1777778E-02
    1       -5.101363   1.000000
    2        4.235901   1.000000
    3        4.895959   1.000000
    4        5.097286   1.000000
    5        5.832698   1.000000
    6        9.796620   1.000001
    7       10.831424  -0.000000
    8       11.591747  -0.000000
    9       11.760161  -0.000000
   10       15.724892   0.000000

  0.1333333E+00  0.6666667E-01  0.3742002E-15  0.3555556E-02
    1       -4.746308   1.000000
    2        3.582273   1.000000
    3        4.882066   1.000000
    4        5.314213   1.000000
    5        5.374067   1.000000
    6        9.590807   1.000000
    7       10.826397  -0.000000
    8       11.319112  -0.000000
    9       11.678392  -0.000000
   10       16.336263   0.000000

  0.2000000E+00  0.6666667E-01  0.3742002E-15  0.3555556E-02
    1       -4.234182   1.000000
    2        2.772108   1.000000
    3        4.779208   1.000000
    4        4.812408   1.000000
    5        5.664237   1.000000
    6        9.325576   1.000000
    7       10.293316  -0.034622
    8       11.186699  -0.000000
    9       12.469187  -0.000000
   10       16.422666   0.000000

  0.2666667E+00  0.6666667E-01  0.3742002E-15  0.3555556E-02
    1       -3.586896   1.000000
    2        1.882200   1.000000
    3        4.396081   1.000000
    4        4.563824   1.000000
    5        5.851054   1.000000
    6        9.047140   1.000000
    7       10.203766   0.185179
    8       11.364434  -0.000000
    9       12.848240  -0.000000
   10       16.588191   0.000000

  0.3333333E+00  0.6666667E-01  0.3742002E-15  0.3555556E-02
    1       -2.832075   1.000000
    2        0.954993   1.000000
    3        4.091631   1.000000
    4        4.300271   1.000000
    5        5.894474   1.000000
    6        8.802891   1.000000
    7       10.536845  -0.000001
    8       11.742198  -0.000000
    9       12.806322  -0.000000
   10       16.930447   0.000000

  0.4000000E+00  0.6666667E-01  0.3742002E-15  0.3555556E-02
    1       -2.014538   1.000000
    2        0.034696   1.000000
    3        3.907803   1.000000
    4        4.091665   1.000000
    5        5.867409   1.000000
    6        8.635744   1.000000
    7       11.013016  -0.000000
    8       12.129729  -0.000000
    9       12.660871  -0.000000
   10       16.879226   0.000000

  0.4666667E+00  0.6666667E-01  0.3742002E-15  0.1777778E-02
    1       -1.418355   1.000000
    2       -0.595725   1.000000
    3        3.846493   1.000000
    4        4.013634   1.000000
    5        5.849122   1.000000
    6        8.576298   1.000000
    7       11.239789  -0.000000
    8       12.302086  -0.000000
    9       12.597194  -0.000000
   10       16.821264   0.000000

  0.1333333E+00  0.1333333E+00  0.3742002E-15  0.1777778E-02
    1       -4.316341   1.000000
    2        2.980259   1.000000
    3        4.566179   1.000000
    4        4.906729   1.000000
    5        5.792144   1.000000
    6        9.202246   1.000000
    7       10.215796   0.115293
    8       11.277325  -0.000000
    9       12.611234  -0.000000
   10       16.360243   0.000000

  0.2000000E+00  0.1333333E+00  0.3742002E-15  0.3555556E-02
    1       -3.738890   1.000000
    2        2.269685   1.000000
    3        4.126819   1.000000
    4        4.551368   1.000000
    5        6.242525   1.000000
    6        8.724273   1.000000
    7        9.751691   1.000000
    8       11.556286  -0.000000
    9       13.495081   0.000000
   10       16.135363   0.000000

  0.2666667E+00  0.1333333E+00  0.3742002E-15  0.3555556E-02
    1       -3.036453   1.000000
    2        1.465629   1.000000
    3        3.681487   1.000000
    4        4.286633   1.000000
    5        6.570453   1.000000
    6        8.257332   1.000000
    7        9.691493   1.000000
    8       11.940752  -0.000000
    9       13.900212   0.000000
   10       16.574637   0.000000

  0.3333333E+00  0.1333333E+00  0.3742002E-15  0.3555556E-02
    1       -2.239001   1.000000
    2        0.591037   1.000000
    3        3.338435   1.000000
    4        4.119134   1.000000
    5        6.681358   1.000000
    6        7.888359   1.000000
    7       10.093582   0.958069
    8       12.142811  -0.000000
    9       13.893124   0.000000
   10       17.469978   0.000000

  0.4000000E+00  0.1333333E+00  0.3742002E-15  0.3555556E-02
    1       -1.417704   1.000000
    2       -0.274558   1.000000
    3        3.156576   1.000000
    4        4.040218   1.000000
    5        6.679702   1.000000
    6        7.684808   1.000000
    7       10.643415  -0.000000
    8       12.025471  -0.000000
    9       13.826009   0.000000
   10       17.607277   0.000000

  0.2000000E+00  0.2000000E+00  0.3742002E-15  0.1777778E-02
    1       -3.104385   1.000000
    2        1.737103   1.000000
    3        3.372693   1.000000
    4        4.381218   1.000000
    5        6.891512   1.000000
    6        8.021260   1.000000
    7        9.300315   1.000000
    8       12.012422  -0.000000
    9       14.636543   0.000000
   10       15.987557   0.000000

  0.2666667E+00  0.2000000E+00  0.3742002E-15  0.3555556E-02
    1       -2.352964   1.000000
    2        1.107202   1.000000
    3        2.718898   1.000000
    4        4.313914   1.000000
    5        7.375339   1.000000
    6        7.412763   1.000000
    7        9.231051   1.000000
    8       12.176656  -0.000000
    9       15.205812   0.000000
   10       16.522243   0.000000

  0.3333333E+00  0.2000000E+00  0.3742002E-15  0.3555556E-02
    1       -1.517602   1.000000
    2        0.324680   1.000000
    3        2.323172   1.000000
    4        4.319328   1.000000
    5        6.910515   1.000000
    6        7.575346   1.000000
    7        9.728504   1.000000
    8       11.850936  -0.000000
    9       15.200929   0.000000
   10       17.508933   0.000000

  0.4000000E+00  0.2000000E+00  0.3742002E-15  0.1777778E-02
    1       -0.801943   1.000000
    2       -0.384348   1.000000
    3        2.198620   1.000000
    4        4.334284   1.000000
    5        6.737591   1.000000
    6        7.579231   1.000000
    7       10.197266   0.228500
    8       11.463870  -0.000000
    9       15.174284   0.000000
   10       17.966749   0.000000

  0.2666667E+00  0.2666667E+00  0.3742002E-15  0.1777778E-02
    1       -1.558930   1.000000
    2        0.751141   1.000000
    3        1.825046   1.000000
    4        4.479782   1.000000
    5        6.576697   1.000000
    6        8.286304   1.000000
    7        8.980293   1.000000
    8       11.799695  -0.000000
    9       16.410290   0.000000
   10       16.569377   0.000000

  0.3333333E+00  0.2666667E+00  0.3742002E-15  0.3555556E-02
    1       -0.693609   1.000000
    2        0.162118   1.000000
    3        1.312604   1.000000
    4        4.704699   1.000000
    5        6.019712   1.000000
    6        8.544272   1.000000
    7        9.487977   1.000000
    8       11.053419  -0.000000
    9       16.417714   0.000000
   10       17.460773   0.000000

  0.3333333E+00  0.3333333E+00  0.3742002E-15  0.5925926E-03
    1        0.054165   1.000000
    2        0.054168   1.000000
    3        0.554419   1.000000
    4        5.275299   1.000000
    5        5.275301   1.000000
    6        9.304567   1.000000
    7        9.304568   1.000000
    8       10.415491  -0.001038
    9       17.193770   0.000000
   10       17.193770   0.000000

  0.3742002E-15  0.3742002E-15  0.6666667E-01  0.5925926E-03
    1       -5.304930   1.000000
    2        4.570257   1.000000
    3        4.893253   1.000000
    4        4.893256   1.000000
    5        6.693828   1.000000
    6        9.713214   1.000000
    7        9.713215   1.000000
    8       12.598409  -0.000000
    9       12.598412  -0.000000
   10       15.398550   0.000000

  0.6666667E-01  0.3766815E-15  0.6666667E-01  0.3555556E-02
    1       -5.213966   1.000000
    2        4.620471   1.000000
    3        4.668925   1.000000
    4        4.931070   1.000000
    5        6.449902   1.000000
    6        9.651597   1.000000
    7       10.026195   1.032852
    8       12.217933  -0.000000
    9       12.307660  -0.000000
   10       15.288131   0.000000

  0.1333333E+00  0.3754153E-15  0.6666667E-01  0.3555556E-02
    1       -4.945771   1.000000
    2        4.067956   1.000000
    3        4.723754   1.000000
    4        5.024985   1.000000
    5        5.974529   1.000000
    6        9.505267   1.000000
    7       10.532677  -0.000001
    8       11.729350  -0.000000
    9       11.828894  -0.000000
   10       15.783804   0.000000

  0.2000000E+00  0.3870416E-15  0.6666667E-01  0.3555556E-02
    1       -4.513612   1.000000
    2        3.242059   1.000000
    3        4.724762   1.000000
    4        5.124426   1.000000
    5        5.581393   1.000000
    6        9.366848   1.000000
    7       10.435446  -0.000402
    8       11.456401  -0.000000
    9       12.051245  -0.000000
   10       15.991103   0.000000

  0.2666667E+00  0.4120044E-15  0.6666667E-01  0.3555556E-02
    1       -3.937335   1.000000
    2        2.316107   1.000000
    3        4.509460   1.000000
    4        5.175784   1.000000
    5        5.337293   1.000000
    6        9.309615   1.000000
    7       10.373045  -0.005716
    8       11.249559  -0.000000
    9       12.459087  -0.000000
   10       16.154204   0.000000

  0.3333333E+00  0.4025434E-15  0.6666667E-01  0.3555556E-02
    1       -3.241327   1.000000
    2        1.357278   1.000000
    3        4.233811   1.000000
    4        5.078849   1.000000
    5        5.163515   1.000000
    6        9.320407   1.000000
    7       10.736422  -0.000000
    8       11.221336  -0.000000
    9       12.485835  -0.000000
   10       16.743020   0.000000

  0.4000000E+00  0.3732510E-15  0.6666667E-01  0.3555556E-02
    1       -2.455693   1.000000
    2        0.401336   1.000000
    3        4.024386   1.000000
    4        4.811886   1.000000
    5        5.117981   1.000000
    6        9.338948   1.000000
    7       11.263796  -0.000000
    8       11.327723  -0.000000
    9       12.492836  -0.000000
   10       16.718019   0.000000

  0.4666667E+00  0.3915456E-15  0.6666667E-01  0.3555556E-02
    1       -1.651411   1.000000
    2       -0.486055   1.000000
    3        3.916587   1.000000
    4        4.645058   1.000000
    5        5.082066   1.000000
    6        9.343420   1.000000
    7       11.441046  -0.000000
    8       11.472137  -0.000000
    9       12.813995  -0.000000
   10       16.370757   0.000000

  0.6666667E-01  0.6666667E-01  0.6666667E-01  0.3555556E-02
    1       -5.034348   1.000000
    2        4.277694   1.000000
    3        4.697965   1.000000
    4        4.959392   1.000000
    5        6.127077   1.000000
    6        9.487673   1.000000
    7       10.515097  -0.000004
    8       11.737494  -0.000000
    9       11.985491  -0.000000
   10       15.807684   0.000000

  0.1333333E+00  0.6666667E-01  0.6666667E-01  0.7111111E-02
    1       -4.683896   1.000000
    2        3.606609   1.000000
    3        4.749864   1.000000
    4        4.903743   1.000000
    5        5.865114   1.000000
    6        9.205423   1.000000
    7       10.809198  -0.000000
    8       11.330803  -0.000000
    9       11.992014  -0.000000
   10       16.201826   0.000000

  0.2000000E+00  0.6666667E-01  0.6666667E-01  0.7111111E-02
    1       -4.178852   1.000000
    2        2.768756   1.000000
    3        4.576406   1.000000
    4        4.781521   1.000000
    5        5.843775   1.000000
    6        8.961221   1.000000
    7       10.549636  -0.000000
    8       11.249095  -0.000000
    9       12.550624  -0.000000
   10       16.103792   0.000000

  0.2666667E+00  0.6666667E-01  0.6666667E-01  0.7111111E-02
    1       -3.540816   1.000000
    2        1.853670   1.000000
    3        4.298625   1.000000
    4        4.586566   1.000000
    5        5.851395   1.000000
    6        8.878113   1.000000
    7       10.479813  -0.000036
    8       11.350610  -0.000000
    9       12.873171  -0.000000
   10       16.357088   0.000000

  0.3333333E+00  0.6666667E-01  0.6666667E-01  0.7111111E-02
    1       -2.795723   1.000000
    2        0.910879   1.000000
    3        4.081136   1.000000
    4        4.332468   1.000000
    5        5.768221   1.000000
    6        8.901909   1.000000
    7       10.690455  -0.000000
    8       11.614059  -0.000000
    9       12.883251  -0.000000
   10       16.852938   0.000000

  0.4000000E+00  0.6666667E-01  0.6666667E-01  0.7111111E-02
    1       -1.980806   1.000000
    2       -0.020907   1.000000
    3        3.967330   1.000000
    4        4.109295   1.000000
    5        5.665690   1.000000
    6        8.904890   1.000000
    7       11.064102  -0.000000
    8       11.809351  -0.000000
    9       12.938707   0.000000
   10       16.716826   0.000000

  0.4666667E+00  0.6666667E-01  0.6666667E-01  0.3555556E-02
    1       -1.345852   1.000000
    2       -0.694447   1.000000
    3        3.958150   1.000000
    4        3.997396   1.000000
    5        5.622971   1.000000
    6        8.896672   1.000000
    7       11.264367  -0.000000
    8       11.838935  -0.000000
    9       13.030615   0.000000
   10       16.564741   0.000000

  0.1333333E+00  0.1333333E+00  0.6666667E-01  0.3555556E-02
    1       -4.259917   1.000000
    2        3.000986   1.000000
    3        4.434297   1.000000
    4        4.718876   1.000000
    5        6.092353   1.000000
    6        8.685222   1.000000
    7       10.719364  -0.000000
    8       11.199750  -0.000000
    9       12.661942  -0.000000
   10       16.189339   0.000000

  0.2000000E+00  0.1333333E+00  0.6666667E-01  0.7111111E-02
    1       -3.691006   1.000000
    2        2.271915   1.000000
    3        3.963223   1.000000
    4        4.551792   1.000000
    5        6.408793   1.000000
    6        8.246431   1.000000
    7       10.296547  -0.033859
    8       11.528171  -0.000000
    9       13.438307   0.000000
   10       15.990348   0.000000

  0.2666667E+00  0.1333333E+00  0.6666667E-01  0.7111111E-02
    1       -2.999091   1.000000
    2        1.442679   1.000000
    3        3.571431   1.000000
    4        4.354880   1.000000
    5        6.505475   1.000000
    6        8.130891   1.000000
    7       10.092974   0.960201
    8       11.892379  -0.000000
    9       13.818884   0.000000
   10       16.373381   0.000000

  0.3333333E+00  0.1333333E+00  0.6666667E-01  0.7111111E-02
    1       -2.211370   1.000000
    2        0.551398   1.000000
    3        3.291332   1.000000
    4        4.205341   1.000000
    5        6.353231   1.000000
    6        8.213365   1.000000
    7       10.280403  -0.035022
    8       12.064588  -0.000000
    9       13.866961   0.000000
   10       16.943781   0.000000

  0.4000000E+00  0.1333333E+00  0.6666667E-01  0.7111111E-02
    1       -1.381734   1.000000
    2       -0.334520   1.000000
    3        3.144389   1.000000
    4        4.131279   1.000000
    5        6.213469   1.000000
    6        8.235163   1.000000
    7       10.711296  -0.000000
    8       11.946319  -0.000000
    9       13.852643   0.000000
   10       17.145147   0.000000

  0.2000000E+00  0.2000000E+00  0.6666667E-01  0.3555556E-02
    1       -3.066679   1.000000
    2        1.737648   1.000000
    3        3.242570   1.000000
    4        4.420960   1.000000
    5        7.064285   1.000000
    6        7.538502   1.000000
    7        9.855735   1.000062
    8       11.984596  -0.000000
    9       14.473176   0.000000
   10       15.874447   0.000000

  0.2666667E+00  0.2000000E+00  0.6666667E-01  0.7111111E-02
    1       -2.327526   1.000000
    2        1.089392   1.000000
    3        2.652791   1.000000
    4        4.363972   1.000000
    5        6.854578   1.000000
    6        7.772829   1.000000
    7        9.631478   1.000000
    8       12.147695  -0.000000
    9       15.052260   0.000000
   10       16.329395   0.000000

  0.3333333E+00  0.2000000E+00  0.6666667E-01  0.7111111E-02
    1       -1.502627   1.000000
    2        0.290645   1.000000
    3        2.308238   1.000000
    4        4.373995   1.000000
    5        6.412621   1.000000
    6        8.116992   1.000000
    7        9.901969   1.000695
    8       11.843116  -0.000000
    9       15.109557   0.000000
   10       17.160884   0.000000

  0.4000000E+00  0.2000000E+00  0.6666667E-01  0.3555556E-02
    1       -0.748336   1.000000
    2       -0.465007   1.000000
    3        2.200301   1.000000
    4        4.392074   1.000000
    5        6.245589   1.000000
    6        8.174175   1.000000
    7       10.286168  -0.035452
    8       11.482503  -0.000000
    9       15.099708   0.000000
   10       17.538358   0.000000

  0.2666667E+00  0.2666667E+00  0.6666667E-01  0.3555556E-02
    1       -1.548715   1.000000
    2        0.727659   1.000000
    3        1.804349   1.000000
    4        4.508139   1.000000
    5        6.328168   1.000000
    6        8.427236   1.000000
    7        9.343531   1.000000
    8       11.802823  -0.000000
    9       16.310928   0.000000
   10       16.333505   0.000000

  0.3333333E+00  0.2666667E+00  0.6666667E-01  0.7111111E-02
    1       -0.700043   1.000000
    2        0.131025   1.000000
    3        1.328548   1.000000
    4        4.715870   1.000000
    5        5.840638   1.000000
    6        8.815361   1.000000
    7        9.650782   1.000000
    8       11.090962  -0.000000
    9       16.309692   0.000000
   10       17.262687   0.000000

  0.3333333E+00  0.3333333E+00  0.6666667E-01  0.1185185E-02
    1        0.001837   1.000000
    2        0.001840   1.000000
    3        0.641335   1.000000
    4        5.218604   1.000000
    5        5.218606   1.000000
    6        9.499459   1.000000
    7        9.499460   1.000000
    8       10.454732  -0.000148
    9       17.068574   0.000000
   10       17.068574   0.000000

  0.3742002E-15  0.3742002E-15  0.1333333E+00  0.5925926E-03
    1       -5.098056   1.000000
    2        3.931223   1.000000
    3        5.059622   1.000000
    4        5.059624   1.000000
    5        7.204850   1.000000
    6        9.181915   1.000000
    7        9.181917   1.000000
    8       12.147801  -0.000000
    9       12.147804  -0.000000
   10       15.321105   0.000000

  0.6666667E-01  0.3766815E-15  0.1333333E+00  0.3555556E-02
    1       -5.010553   1.000000
    2        3.974325   1.000000
    3        4.816987   1.000000
    4        5.078302   1.000000
    5        6.901137   1.000000
    6        9.102012   1.000000
    7        9.520847   1.000000
    8       12.012883  -0.000000
    9       12.122732  -0.000000
   10       15.632286   0.000000

  0.1333333E+00  0.3754153E-15  0.1333333E+00  0.3555556E-02
    1       -4.752928   1.000000
    2        3.989400   1.000000
    3        4.258953   1.000000
    4        5.108305   1.000000
    5        6.382099   1.000000
    6        8.961329   1.000000
    7        9.955475   1.006207
    8       11.969245  -0.000000
    9       12.038273  -0.000000
   10       15.890357   0.000000

  0.2000000E+00  0.3870416E-15  0.1333333E+00  0.3555556E-02
    1       -4.339007   1.000000
    2        3.215624   1.000000
    3        4.261506   1.000000
    4        5.090865   1.000000
    5        5.906608   1.000000
    6        8.938699   1.000000
    7       10.021380   1.031139
    8       11.900620  -0.000000
    9       12.388380  -0.000000
   10       15.653493   0.000000

  0.2666667E+00  0.4120044E-15  0.1333333E+00  0.3555556E-02
    1       -3.788657   1.000000
    2        2.244682   1.000000
    3        4.311790   1.000000
    4        4.992550   1.000000
    5        5.488089   1.000000
    6        9.123465   1.000000
    7       10.094640   0.954265
    8       11.743864  -0.000000
    9       12.765954  -0.000000
   10       15.651675   0.000000

  0.3333333E+00  0.4025434E-15  0.1333333E+00  0.3555556E-02
    1       -3.124422   1.000000
    2        1.258767   1.000000
    3        4.292416   1.000000
    4        4.843946   1.000000
    5        5.117454   1.000000
    6        9.461162   1.000000
    7       10.397441  -0.002262
    8       11.608723  -0.000000
    9       12.804637  -0.000000
   10       16.126379   0.000000

  0.4000000E+00  0.3732510E-15  0.1333333E+00  0.3555556E-02
    1       -2.368743   1.000000
    2        0.293215   1.000000
    3        4.246679   1.000000
    4        4.705608   1.000000
    5        4.823598   1.000000
    6        9.807559   1.000003
    7       10.727311  -0.000000
    8       11.526431  -0.000000
    9       12.941808   0.000000
   10       16.334311   0.000000

  0.4666667E+00  0.3915456E-15  0.1333333E+00  0.3555556E-02
    1       -1.546923   1.000000
    2       -0.631173   1.000000
    3        4.216658   1.000000
    4        4.624979   1.000000
    5        4.657821   1.000000
    6       10.017720   1.029667
    7       10.853049  -0.000000
    8       11.499456  -0.000000
    9       13.339856   0.000000
   10       15.971529   0.000000

  0.6666667E-01  0.6666667E-01  0.1333333E+00  0.3555556E-02
    1       -4.837956   1.000000
    2        4.041453   1.000000
    3        4.400082   1.000000
    4        5.052204   1.000000
    5        6.578173   1.000000
    6        8.870205   1.000000
    7       10.005542   1.024211
    8       11.802404  -0.000000
    9       12.159544  -0.000000
   10       16.152309   0.000000

  0.1333333E+00  0.6666667E-01  0.1333333E+00  0.7111111E-02
    1       -4.502003   1.000000
    2        3.651915   1.000000
    3        4.144518   1.000000
    4        4.922531   1.000000
    5        6.334755   1.000000
    6        8.557636   1.000000
    7       10.403285  -0.001773
    8       11.681959  -0.000000
    9       12.348240  -0.000000
   10       16.033120   0.000000

  0.2000000E+00  0.6666667E-01  0.1333333E+00  0.7111111E-02
    1       -4.019318   1.000000
    2        2.746048   1.000000
    3        4.169212   1.000000
    4        4.745606   1.000000
    5        6.120593   1.000000
    6        8.469397   1.000000
    7       10.514852  -0.000004
    8       11.645689  -0.000000
    9       12.781653  -0.000000
   10       15.709158   0.000000

  0.2666667E+00  0.6666667E-01  0.1333333E+00  0.7111111E-02
    1       -3.411000   1.000000
    2        1.780961   1.000000
    3        4.107563   1.000000
    4        4.572630   1.000000
    5        5.817469   1.000000
    6        8.711017   1.000000
    7       10.698242  -0.000000
    8       11.554133  -0.000000
    9       13.041436   0.000000
   10       15.865062   0.000000

  0.3333333E+00  0.6666667E-01  0.1333333E+00  0.7111111E-02
    1       -2.699443   1.000000
    2        0.814466   1.000000
    3        4.015022   1.000000
    4        4.410795   1.000000
    5        5.496992   1.000000
    6        9.132641   1.000000
    7       10.967868  -0.000000
    8       11.475762  -0.000000
    9       13.109262   0.000000
   10       16.301664   0.000000

  0.4000000E+00  0.6666667E-01  0.1333333E+00  0.7111111E-02
    1       -1.906665   1.000000
    2       -0.128359   1.000000
    3        3.943429   1.000000
    4        4.292198   1.000000
    5        5.264483   1.000000
    6        9.482477   1.000000
    7       11.190296  -0.000000
    8       11.425487  -0.000000
    9       13.320011   0.000000
   10       16.270075   0.000000

  0.4666667E+00  0.6666667E-01  0.1333333E+00  0.3555556E-02
    1       -1.133967   1.000000
    2       -0.950358   1.000000
    3        3.916412   1.000000
    4        4.250112   1.000000
    5        5.180462   1.000000
    6        9.605096   1.000000
    7       11.335456  -0.000000
    8       11.349294  -0.000000
    9       13.497988   0.000000
   10       16.085947   0.000000

  0.1333333E+00  0.1333333E+00  0.1333333E+00  0.3555556E-02
    1       -4.096862   1.000000
    2        3.059760   1.000000
    3        3.933777   1.000000
    4        4.648187   1.000000
    5        6.617735   1.000000
    6        7.923751   1.000000
    7       10.970837  -0.000000
    8       11.373725  -0.000000
    9       12.823290  -0.000000
   10       15.947673   0.000000

  0.2000000E+00  0.1333333E+00  0.1333333E+00  0.7111111E-02
    1       -3.555010   1.000000
    2        2.274426   1.000000
    3        3.617890   1.000000
    4        4.534609   1.000000
    5        6.675268   1.000000
    6        7.707612   1.000000
    7       11.052538  -0.000000
    8       11.455168  -0.000000
    9       13.397395   0.000000
   10       15.702396   0.000000

  0.2666667E+00  0.1333333E+00  0.1333333E+00  0.7111111E-02
    1       -2.897260   1.000000
    2        1.386184   1.000000
    3        3.362489   1.000000
    4        4.450659   1.000000
    5        6.236870   1.000000
    6        8.185237   1.000000
    7       10.868577  -0.000000
    8       11.745519  -0.000000
    9       13.728609   0.000000
   10       15.954314   0.000000

  0.3333333E+00  0.1333333E+00  0.1333333E+00  0.7111111E-02
    1       -2.145466   1.000000
    2        0.468395   1.000000
    3        3.190467   1.000000
    4        4.387953   1.000000
    5        5.813296   1.000000
    6        8.764490   1.000000
    7       10.799947  -0.000000
    8       11.859180  -0.000000
    9       13.859543   0.000000
   10       16.380946   0.000000

  0.4000000E+00  0.1333333E+00  0.1333333E+00  0.7111111E-02
    1       -1.321491   1.000000
    2       -0.440460   1.000000
    3        3.102539   1.000000
    4        4.363178   1.000000
    5        5.569607   1.000000
    6        9.109795   1.000000
    7       10.917705  -0.000000
    8       11.769688  -0.000000
    9       13.934736   0.000000
   10       16.530158   0.000000

  0.2000000E+00  0.2000000E+00  0.1333333E+00  0.3555556E-02
    1       -2.962994   1.000000
    2        1.736987   1.000000
    3        2.970544   1.000000
    4        4.476680   1.000000
    5        6.809977   1.000000
    6        7.519695   1.000000
    7       10.774085  -0.000000
    8       11.883673  -0.000000
    9       14.193578   0.000000
   10       15.624249   0.000000

  0.2666667E+00  0.2000000E+00  0.1333333E+00  0.7111111E-02
    1       -2.263891   1.000000
    2        1.042841   1.000000
    3        2.517651   1.000000
    4        4.466131   1.000000
    5        6.232707   1.000000
    6        8.224217   1.000000
    7       10.475624  -0.000045
    8       12.059570  -0.000000
    9       14.752854   0.000000
   10       15.960927   0.000000
