   52   52   85    1
  0.1928801E+02  0.8733603E-09  0.6079487E-09  0.2183401E-08  0.5000000E-15
   1.0000000000000000E-004
  CAR 
 Name                                    
    188     50    126

  0.3742002E-15  0.3742002E-15  0.1262379E-14  0.1010101E-01
    1      -13.061641   1.000000
    2      -11.812611   1.000000
    3      -11.592674   1.000000
    4      -11.196943   1.000000
    5      -10.676618   1.000000
    6      -10.417415   1.000000
    7      -10.147074   1.000000
    8      -10.044414   1.000000
    9       -9.949780   1.000000
   10       -9.757465   1.000000
   11       -9.753637   1.000000
   12       -9.651913   1.000000
   13       -9.326812   1.000000
   14       -9.302585   1.000000
   15       -8.920255   1.000000
   16       -8.906580   1.000000
   17       -8.371469   1.000000
   18       -8.247289   1.000000
   19       -8.241475   1.000000
   20       -7.589986   1.000000
   21       -7.583558   1.000000
   22       -7.417786   1.000000
   23       -7.410204   1.000000
   24       -7.147878   1.000000
   25       -7.126525   1.000000
   26       -7.112524   1.000000
   27       -6.739236   1.000000
   28       -6.539417   1.000000
   29       -6.245876   1.000000
   30       -5.679513   1.000000
   31       -5.663970   1.000000
   32       -5.558136   1.000000
   33       -5.240333   1.000000
   34       -5.211203   1.000000
   35       -4.931332   1.000000
   36       -4.746134   1.000000
   37       -4.659189   1.000000
   38       -4.631411   1.000000
   39       -4.380325   1.000000
   40       -4.338478   1.000000
   41       -4.311034   1.000000
   42       -4.271344   1.000000
   43       -4.114150   1.000000
   44       -3.961711   1.000000
   45       -3.886303   1.000000
   46       -3.867436   1.000000
   47       -3.817478   1.000000
   48       -3.808301   1.000000
   49       -3.662203   1.000000
   50       -3.615838   1.000000
   51       -3.528002   1.000000
   52       -3.501399   1.000000
   53       -3.435211   1.000000
   54       -3.268357   1.000000
   55       -3.149618   1.000000
   56       -3.143160   1.000000
   57       -3.127719   1.000000
   58       -3.001513   1.000000
   59       -2.918728   1.000000
   60       -2.887808   1.000000
   61       -2.839825   1.000000
   62       -2.690648   1.000000
   63       -2.671073   1.000000
   64       -2.602774   1.000000
   65       -2.569650   1.000000
   66       -2.484158   1.000000
   67       -2.418241   1.000000
   68       -2.316600   1.000000
   69       -2.294099   1.000000
   70       -2.157305   1.000000
   71       -2.148647   1.000000
   72       -2.114610   1.000000
   73       -2.029325   1.000000
   74       -2.010802   1.000000
   75       -1.597439   1.000000
   76       -1.364221   1.000000
   77       -1.186793   1.000000
   78       -1.147374   1.000000
   79       -1.097665   1.000000
   80       -1.039514   1.000000
   81       -1.006616   1.000000
   82       -0.626560   1.000000
   83       -0.425371   1.000000
   84       -0.420016   1.000000
   85       -0.364878   1.000000
   86        0.024750   1.000000
   87        0.026822   1.000000
   88        0.132171   1.000000
   89        0.170738   1.000000
   90        0.590005   1.000098
   91        0.651159   1.001949
   92        0.799325   1.011043
   93        0.879029   0.584931
   94        1.006784  -0.035077
   95        1.066510  -0.015455
   96        1.067894  -0.014908
   97        1.105754  -0.004504
   98        1.284635  -0.000000
   99        1.391269  -0.000000
  100        1.392256  -0.000000
  101        1.414578  -0.000000
  102        1.451493  -0.000000
  103        1.534542  -0.000000
  104        1.556595  -0.000000
  105        1.573057  -0.000000
  106        1.737927  -0.000000
  107        1.745181  -0.000000
  108        1.956541  -0.000000
  109        1.983703  -0.000000
  110        2.096433  -0.000000
  111        2.138483  -0.000000
  112        2.171436  -0.000000
  113        2.187344  -0.000000
  114        2.229608  -0.000000
  115        2.244703  -0.000000
  116        2.388303  -0.000000
  117        2.412191  -0.000000
  118        2.506324  -0.000000
  119        2.534518  -0.000000
  120        2.587633  -0.000000
  121        2.655900  -0.000000
  122        2.663779  -0.000000
  123        2.679970  -0.000000
  124        2.714171  -0.000000
  125        2.760850  -0.000000
  126        2.807160  -0.000000

  0.1111111E+00  0.3694577E-15  0.1266495E-14  0.2020202E-01
    1      -13.036431   1.000000
    2      -11.789860   1.000000
    3      -11.727651   1.000000
    4      -11.113653   1.000000
    5      -10.663038   1.000000
    6      -10.459325   1.000000
    7      -10.134606   1.000000
    8      -10.046877   1.000000
    9       -9.955285   1.000000
   10       -9.753009   1.000000
   11       -9.744812   1.000000
   12       -9.640382   1.000000
   13       -9.317198   1.000000
   14       -9.294283   1.000000
   15       -8.908959   1.000000
   16       -8.895493   1.000000
   17       -8.352695   1.000000
   18       -8.253818   1.000000
   19       -8.249434   1.000000
   20       -7.581436   1.000000
   21       -7.573920   1.000000
   22       -7.469579   1.000000
   23       -7.467431   1.000000
   24       -7.144606   1.000000
   25       -7.136087   1.000000
   26       -7.060421   1.000000
   27       -6.846843   1.000000
   28       -6.556741   1.000000
   29       -6.192507   1.000000
   30       -5.668648   1.000000
   31       -5.655536   1.000000
   32       -5.479627   1.000000
   33       -5.223907   1.000000
   34       -5.187044   1.000000
   35       -5.002091   1.000000
   36       -4.741695   1.000000
   37       -4.674504   1.000000
   38       -4.623396   1.000000
   39       -4.466420   1.000000
   40       -4.323813   1.000000
   41       -4.322737   1.000000
   42       -4.264638   1.000000
   43       -4.038661   1.000000
   44       -3.999321   1.000000
   45       -3.851080   1.000000
   46       -3.808828   1.000000
   47       -3.801264   1.000000
   48       -3.767409   1.000000
   49       -3.653410   1.000000
   50       -3.648089   1.000000
   51       -3.509361   1.000000
   52       -3.486464   1.000000
   53       -3.415719   1.000000
   54       -3.284280   1.000000
   55       -3.160240   1.000000
   56       -3.130982   1.000000
   57       -3.106156   1.000000
   58       -2.992369   1.000000
   59       -2.945390   1.000000
   60       -2.915980   1.000000
   61       -2.839886   1.000000
   62       -2.711433   1.000000
   63       -2.678672   1.000000
   64       -2.599940   1.000000
   65       -2.580767   1.000000
   66       -2.480944   1.000000
   67       -2.428374   1.000000
   68       -2.336903   1.000000
   69       -2.321808   1.000000
   70       -2.162117   1.000000
   71       -2.127261   1.000000
   72       -2.088418   1.000000
   73       -2.012733   1.000000
   74       -1.985702   1.000000
   75       -1.672028   1.000000
   76       -1.365611   1.000000
   77       -1.201841   1.000000
   78       -1.185915   1.000000
   79       -1.107936   1.000000
   80       -1.007987   1.000000
   81       -1.000146   1.000000
   82       -0.539460   1.000000
   83       -0.441696   1.000000
   84       -0.436606   1.000000
   85       -0.383785   1.000000
   86        0.013522   1.000000
   87        0.026622   1.000000
   88        0.153037   1.000000
   89        0.242318   1.000000
   90        0.547127   1.000007
   91        0.604060   1.000210
   92        0.765319   1.035431
   93        0.893331   0.464413
   94        1.019318  -0.034632
   95        1.052434  -0.021541
   96        1.100968  -0.005352
   97        1.137988  -0.001218
   98        1.311898  -0.000000
   99        1.368410  -0.000000
  100        1.377597  -0.000000
  101        1.388641  -0.000000
  102        1.436524  -0.000000
  103        1.549111  -0.000000
  104        1.577802  -0.000000
  105        1.583130  -0.000000
  106        1.780878  -0.000000
  107        1.781696  -0.000000
  108        1.989489  -0.000000
  109        2.023229  -0.000000
  110        2.075092  -0.000000
  111        2.142985  -0.000000
  112        2.182946  -0.000000
  113        2.194595  -0.000000
  114        2.243400  -0.000000
  115        2.247230  -0.000000
  116        2.377368  -0.000000
  117        2.387467  -0.000000
  118        2.500150  -0.000000
  119        2.505202  -0.000000
  120        2.597284  -0.000000
  121        2.645055  -0.000000
  122        2.648640  -0.000000
  123        2.678388  -0.000000
  124        2.731240  -0.000000
  125        2.765545  -0.000000
  126        2.813483  -0.000000

  0.2222222E+00  0.3681327E-15  0.1265439E-14  0.2020202E-01
    1      -12.961428   1.000000
    2      -11.972723   1.000000
    3      -11.722561   1.000000
    4      -11.055973   1.000000
    5      -10.625209   1.000000
    6      -10.514507   1.000000
    7      -10.103573   1.000000
    8      -10.053348   1.000000
    9       -9.960560   1.000000
   10       -9.741863   1.000000
   11       -9.724942   1.000000
   12       -9.640655   1.000000
   13       -9.297943   1.000000
   14       -9.276570   1.000000
   15       -8.875555   1.000000
   16       -8.863111   1.000000
   17       -8.290131   1.000000
   18       -8.264982   1.000000
   19       -8.249341   1.000000
   20       -7.612568   1.000000
   21       -7.604745   1.000000
   22       -7.549206   1.000000
   23       -7.547329   1.000000
   24       -7.179857   1.000000
   25       -7.176887   1.000000
   26       -7.069339   1.000000
   27       -6.876537   1.000000
   28       -6.570416   1.000000
   29       -6.143269   1.000000
   30       -5.651207   1.000000
   31       -5.642258   1.000000
   32       -5.284503   1.000000
   33       -5.223682   1.000000
   34       -5.161524   1.000000
   35       -5.123472   1.000000
   36       -4.761898   1.000000
   37       -4.672235   1.000000
   38       -4.639816   1.000000
   39       -4.550324   1.000000
   40       -4.351108   1.000000
   41       -4.214485   1.000000
   42       -4.124245   1.000000
   43       -4.080850   1.000000
   44       -4.033571   1.000000
   45       -3.840899   1.000000
   46       -3.812754   1.000000
   47       -3.763589   1.000000
   48       -3.693871   1.000000
   49       -3.665134   1.000000
   50       -3.557801   1.000000
   51       -3.461644   1.000000
   52       -3.439590   1.000000
   53       -3.387959   1.000000
   54       -3.271277   1.000000
   55       -3.195984   1.000000
   56       -3.100299   1.000000
   57       -3.094728   1.000000
   58       -3.012172   1.000000
   59       -2.982441   1.000000
   60       -2.938433   1.000000
   61       -2.845593   1.000000
   62       -2.759930   1.000000
   63       -2.656767   1.000000
   64       -2.611768   1.000000
   65       -2.594470   1.000000
   66       -2.477768   1.000000
   67       -2.477323   1.000000
   68       -2.381958   1.000000
   69       -2.352912   1.000000
   70       -2.208256   1.000000
   71       -2.182943   1.000000
   72       -1.994771   1.000000
   73       -1.922691   1.000000
   74       -1.879252   1.000000
   75       -1.829447   1.000000
   76       -1.386944   1.000000
   77       -1.320942   1.000000
   78       -1.223326   1.000000
   79       -1.168943   1.000000
   80       -0.989118   1.000000
   81       -0.878068   1.000000
   82       -0.498997   1.000000
   83       -0.493202   1.000000
   84       -0.447327   1.000000
   85       -0.314162   1.000000
   86        0.030747   1.000000
   87        0.035777   1.000000
   88        0.194172   1.000000
   89        0.430197   1.000000
   90        0.449983   1.000000
   91        0.498848   1.000000
   92        0.668168   1.003836
   93        0.948431   0.083107
   94        0.980802  -0.014200
   95        1.041829  -0.026430
   96        1.153014  -0.000609
   97        1.262725  -0.000001
   98        1.277902  -0.000000
   99        1.289878  -0.000000
  100        1.378021  -0.000000
  101        1.400041  -0.000000
  102        1.407714  -0.000000
  103        1.571956  -0.000000
  104        1.583788  -0.000000
  105        1.628130  -0.000000
  106        1.918153  -0.000000
  107        1.921414  -0.000000
  108        2.000519  -0.000000
  109        2.066252  -0.000000
  110        2.069184  -0.000000
  111        2.153779  -0.000000
  112        2.174084  -0.000000
  113        2.233699  -0.000000
  114        2.269314  -0.000000
  115        2.282963  -0.000000
  116        2.342537  -0.000000
  117        2.373279  -0.000000
  118        2.451627  -0.000000
  119        2.471391  -0.000000
  120        2.593360  -0.000000
  121        2.611234  -0.000000
  122        2.649742  -0.000000
  123        2.663953  -0.000000
  124        2.750041  -0.000000
  125        2.771752  -0.000000
  126        2.802103  -0.000000

  0.3333333E+00  0.3672355E-15  0.1308213E-14  0.2020202E-01
    1      -12.838573   1.000000
    2      -12.227711   1.000000
    3      -11.613828   1.000000
    4      -11.142515   1.000000
    5      -10.572541   1.000000
    6      -10.508109   1.000000
    7      -10.076522   1.000000
    8      -10.061059   1.000000
    9       -9.937566   1.000000
   10       -9.738448   1.000000
   11       -9.705251   1.000000
   12       -9.675808   1.000000
   13       -9.281752   1.000000
   14       -9.263801   1.000000
   15       -8.827223   1.000000
   16       -8.817742   1.000000
   17       -8.276238   1.000000
   18       -8.269106   1.000000
   19       -8.108834   1.000000
   20       -7.773229   1.000000
   21       -7.759640   1.000000
   22       -7.521453   1.000000
   23       -7.514469   1.000000
   24       -7.347555   1.000000
   25       -7.227959   1.000000
   26       -7.212691   1.000000
   27       -6.653721   1.000000
   28       -6.488296   1.000000
   29       -6.195098   1.000000
   30       -5.641295   1.000000
   31       -5.639449   1.000000
   32       -5.520802   1.000000
   33       -5.133030   1.000000
   34       -5.129479   1.000000
   35       -4.960953   1.000000
   36       -4.730786   1.000000
   37       -4.639758   1.000000
   38       -4.630968   1.000000
   39       -4.501663   1.000000
   40       -4.399098   1.000000
   41       -4.194015   1.000000
   42       -4.137552   1.000000
   43       -4.017129   1.000000
   44       -3.975682   1.000000
   45       -3.943042   1.000000
   46       -3.936556   1.000000
   47       -3.705564   1.000000
   48       -3.616048   1.000000
   49       -3.552437   1.000000
   50       -3.504532   1.000000
   51       -3.421224   1.000000
   52       -3.396633   1.000000
   53       -3.371008   1.000000
   54       -3.234645   1.000000
   55       -3.188292   1.000000
   56       -3.169195   1.000000
   57       -3.088466   1.000000
   58       -3.040440   1.000000
   59       -2.963937   1.000000
   60       -2.876816   1.000000
   61       -2.867828   1.000000
   62       -2.787885   1.000000
   63       -2.651635   1.000000
   64       -2.617052   1.000000
   65       -2.610701   1.000000
   66       -2.542100   1.000000
   67       -2.520091   1.000000
   68       -2.448134   1.000000
   69       -2.328766   1.000000
   70       -2.257032   1.000000
   71       -2.223350   1.000000
   72       -2.016928   1.000000
   73       -1.870136   1.000000
   74       -1.823675   1.000000
   75       -1.740192   1.000000
   76       -1.453080   1.000000
   77       -1.439402   1.000000
   78       -1.285776   1.000000
   79       -1.220493   1.000000
   80       -1.015868   1.000000
   81       -0.720202   1.000000
   82       -0.578615   1.000000
   83       -0.574947   1.000000
   84       -0.476077   1.000000
   85       -0.113067   1.000000
   86        0.071618   1.000000
   87        0.115304   1.000000
   88        0.291486   1.000000
   89        0.337650   1.000000
   90        0.393775   1.000000
   91        0.523301   1.000001
   92        0.678267   1.005542
   93        0.910926   0.320249
   94        0.924785   0.218418
   95        1.041851  -0.026420
   96        1.199513  -0.000052
   97        1.200885  -0.000048
   98        1.227952  -0.000009
   99        1.269283  -0.000001
  100        1.384464  -0.000000
  101        1.392518  -0.000000
  102        1.536376  -0.000000
  103        1.540627  -0.000000
  104        1.714193  -0.000000
  105        1.740050  -0.000000
  106        1.868758  -0.000000
  107        2.038527  -0.000000
  108        2.067314  -0.000000
  109        2.090549  -0.000000
  110        2.125486  -0.000000
  111        2.165561  -0.000000
  112        2.202021  -0.000000
  113        2.255557  -0.000000
  114        2.296642  -0.000000
  115        2.303236  -0.000000
  116        2.343103  -0.000000
  117        2.408323  -0.000000
  118        2.424181  -0.000000
  119        2.450683  -0.000000
  120        2.529673  -0.000000
  121        2.557753  -0.000000
  122        2.588282  -0.000000
  123        2.664477  -0.000000
  124        2.687239  -0.000000
  125        2.754959  -0.000000
  126        2.783788  -0.000000

  0.4444444E+00  0.3795814E-15  0.1235432E-14  0.2020202E-01
    1      -12.671309   1.000000
    2      -12.464979   1.000000
    3      -11.469960   1.000000
    4      -11.303428   1.000000
    5      -10.522306   1.000000
    6      -10.497270   1.000000
    7      -10.068806   1.000000
    8      -10.066466   1.000000
    9       -9.873000   1.000000
   10       -9.791656   1.000000
   11       -9.693437   1.000000
   12       -9.690659   1.000000
   13       -9.270422   1.000000
   14       -9.262993   1.000000
   15       -8.787322   1.000000
   16       -8.783464   1.000000
   17       -8.260783   1.000000
   18       -8.257564   1.000000
   19       -7.902692   1.000000
   20       -7.887639   1.000000
   21       -7.871614   1.000000
   22       -7.646533   1.000000
   23       -7.475447   1.000000
   24       -7.461211   1.000000
   25       -7.268694   1.000000
   26       -7.265178   1.000000
   27       -6.495370   1.000000
   28       -6.334457   1.000000
   29       -6.220200   1.000000
   30       -5.881000   1.000000
   31       -5.635536   1.000000
   32       -5.632355   1.000000
   33       -5.099544   1.000000
   34       -5.092249   1.000000
   35       -4.728032   1.000000
   36       -4.661721   1.000000
   37       -4.612518   1.000000
   38       -4.580577   1.000000
   39       -4.446988   1.000000
   40       -4.421285   1.000000
   41       -4.293722   1.000000
   42       -4.276172   1.000000
   43       -4.048442   1.000000
   44       -4.031347   1.000000
   45       -3.895041   1.000000
   46       -3.868825   1.000000
   47       -3.611283   1.000000
   48       -3.587606   1.000000
   49       -3.544141   1.000000
   50       -3.493288   1.000000
   51       -3.427503   1.000000
   52       -3.369306   1.000000
   53       -3.329963   1.000000
   54       -3.270784   1.000000
   55       -3.197265   1.000000
   56       -3.148233   1.000000
   57       -3.065522   1.000000
   58       -2.985035   1.000000
   59       -2.981012   1.000000
   60       -2.901000   1.000000
   61       -2.808674   1.000000
   62       -2.765952   1.000000
   63       -2.704529   1.000000
   64       -2.654908   1.000000
   65       -2.627823   1.000000
   66       -2.583005   1.000000
   67       -2.530463   1.000000
   68       -2.517808   1.000000
   69       -2.292082   1.000000
   70       -2.262911   1.000000
   71       -2.212282   1.000000
   72       -2.128733   1.000000
   73       -1.809548   1.000000
   74       -1.800598   1.000000
   75       -1.596136   1.000000
   76       -1.492354   1.000000
   77       -1.491275   1.000000
   78       -1.435164   1.000000
   79       -1.169773   1.000000
   80       -1.091051   1.000000
   81       -0.666530   1.000000
   82       -0.650954   1.000000
   83       -0.559656   1.000000
   84       -0.496382   1.000000
   85        0.031992   1.000000
   86        0.105334   1.000000
   87        0.197541   1.000000
   88        0.240840   1.000000
   89        0.334230   1.000000
   90        0.385902   1.000000
   91        0.511603   1.000001
   92        0.782869   1.030458
   93        0.863916   0.705978
   94        0.881254   0.566357
   95        0.943195   0.108354
   96        1.137192  -0.001262
   97        1.181249  -0.000144
   98        1.189424  -0.000092
   99        1.378345  -0.000000
  100        1.380691  -0.000000
  101        1.493747  -0.000000
  102        1.508157  -0.000000
  103        1.531352  -0.000000
  104        1.710657  -0.000000
  105        1.860975  -0.000000
  106        1.962268  -0.000000
  107        1.998269  -0.000000
  108        2.123257  -0.000000
  109        2.132065  -0.000000
  110        2.183646  -0.000000
  111        2.209231  -0.000000
  112        2.249098  -0.000000
  113        2.269098  -0.000000
  114        2.318352  -0.000000
  115        2.318932  -0.000000
  116        2.357334  -0.000000
  117        2.364486  -0.000000
  118        2.396542  -0.000000
  119        2.405294  -0.000000
  120        2.485387  -0.000000
  121        2.498512  -0.000000
  122        2.577255  -0.000000
  123        2.596282  -0.000000
  124        2.661142  -0.000000
  125        2.735843  -0.000000
  126        2.785769  -0.000000

  0.3742002E-15  0.9090909E-01  0.1339361E-14  0.2020202E-01
    1      -13.028759   1.000000
    2      -11.782879   1.000000
    3      -11.603008   1.000000
    4      -11.156304   1.000000
    5      -10.655077   1.000000
    6      -10.407591   1.000000
    7      -10.318197   1.000000
    8      -10.276563   1.000000
    9      -10.048933   1.000000
   10       -9.719590   1.000000
   11       -9.635452   1.000000
   12       -9.625358   1.000000
   13       -9.280999   1.000000
   14       -9.272783   1.000000
   15       -8.910487   1.000000
   16       -8.902822   1.000000
   17       -8.345364   1.000000
   18       -8.224420   1.000000
   19       -8.213008   1.000000
   20       -7.725035   1.000000
   21       -7.714726   1.000000
   22       -7.294245   1.000000
   23       -7.291217   1.000000
   24       -7.100519   1.000000
   25       -6.937352   1.000000
   26       -6.913229   1.000000
   27       -6.778877   1.000000
   28       -6.515295   1.000000
   29       -6.225493   1.000000
   30       -5.723093   1.000000
   31       -5.679977   1.000000
   32       -5.514591   1.000000
   33       -5.236381   1.000000
   34       -5.197936   1.000000
   35       -4.973717   1.000000
   36       -4.775680   1.000000
   37       -4.625731   1.000000
   38       -4.614919   1.000000
   39       -4.380484   1.000000
   40       -4.365692   1.000000
   41       -4.313881   1.000000
   42       -4.293930   1.000000
   43       -4.114862   1.000000
   44       -3.992707   1.000000
   45       -3.977629   1.000000
   46       -3.853719   1.000000
   47       -3.845076   1.000000
   48       -3.839548   1.000000
   49       -3.771071   1.000000
   50       -3.646100   1.000000
   51       -3.550345   1.000000
   52       -3.527410   1.000000
   53       -3.432610   1.000000
   54       -3.343165   1.000000
   55       -3.240295   1.000000
   56       -3.138349   1.000000
   57       -3.115360   1.000000
   58       -3.027521   1.000000
   59       -2.952877   1.000000
   60       -2.870733   1.000000
   61       -2.814392   1.000000
   62       -2.699692   1.000000
   63       -2.697970   1.000000
   64       -2.591457   1.000000
   65       -2.567896   1.000000
   66       -2.478261   1.000000
   67       -2.389339   1.000000
   68       -2.312429   1.000000
   69       -2.289948   1.000000
   70       -2.208534   1.000000
   71       -2.109771   1.000000
   72       -2.057763   1.000000
   73       -2.005715   1.000000
   74       -1.979502   1.000000
   75       -1.770512   1.000000
   76       -1.351283   1.000000
   77       -1.179596   1.000000
   78       -1.175789   1.000000
   79       -1.045824   1.000000
   80       -1.020438   1.000000
   81       -0.836739   1.000000
   82       -0.637405   1.000000
   83       -0.455048   1.000000
   84       -0.419596   1.000000
   85       -0.333942   1.000000
   86       -0.029341   1.000000
   87        0.031908   1.000000
   88        0.087994   1.000000
   89        0.131474   1.000000
   90        0.451091   1.000000
   91        0.636256   1.001018
   92        0.789558   1.024669
   93        0.824362   0.940230
   94        0.895730   0.444211
   95        0.968385   0.011861
   96        1.039273  -0.027584
   97        1.109363  -0.003940
   98        1.281261  -0.000000
   99        1.286647  -0.000000
  100        1.416013  -0.000000
  101        1.424856  -0.000000
  102        1.550856  -0.000000
  103        1.588563  -0.000000
  104        1.637250  -0.000000
  105        1.666447  -0.000000
  106        1.741670  -0.000000
  107        1.819798  -0.000000
  108        1.988875  -0.000000
  109        2.024279  -0.000000
  110        2.111893  -0.000000
  111        2.133335  -0.000000
  112        2.175344  -0.000000
  113        2.215644  -0.000000
  114        2.221865  -0.000000
  115        2.258940  -0.000000
  116        2.389023  -0.000000
  117        2.407549  -0.000000
  118        2.445448  -0.000000
  119        2.458515  -0.000000
  120        2.598880  -0.000000
  121        2.601650  -0.000000
  122        2.661019  -0.000000
  123        2.689890  -0.000000
  124        2.774292  -0.000000
  125        2.778499  -0.000000
  126        2.806984  -0.000000

  0.1111111E+00  0.9090909E-01  0.1250028E-14  0.2020202E-01
    1      -12.983112   1.000000
    2      -11.803215   1.000000
    3      -11.741978   1.000000
    4      -11.054070   1.000000
    5      -10.630496   1.000000
    6      -10.467591   1.000000
    7      -10.385977   1.000000
    8      -10.215282   1.000000
    9      -10.004930   1.000000
   10       -9.711634   1.000000
   11       -9.616509   1.000000
   12       -9.605230   1.000000
   13       -9.310223   1.000000
   14       -9.291461   1.000000
   15       -8.875075   1.000000
   16       -8.870876   1.000000
   17       -8.316102   1.000000
   18       -8.230785   1.000000
   19       -8.212487   1.000000
   20       -7.771902   1.000000
   21       -7.716201   1.000000
   22       -7.375990   1.000000
   23       -7.340795   1.000000
   24       -7.001472   1.000000
   25       -6.961774   1.000000
   26       -6.947275   1.000000
   27       -6.875990   1.000000
   28       -6.542839   1.000000
   29       -6.152691   1.000000
   30       -5.777788   1.000000
   31       -5.606790   1.000000
   32       -5.371380   1.000000
   33       -5.235612   1.000000
   34       -5.147327   1.000000
   35       -5.070614   1.000000
   36       -4.823927   1.000000
   37       -4.644607   1.000000
   38       -4.558590   1.000000
   39       -4.537906   1.000000
   40       -4.388715   1.000000
   41       -4.273357   1.000000
   42       -4.236453   1.000000
   43       -4.093202   1.000000
   44       -3.991728   1.000000
   45       -3.892095   1.000000
   46       -3.887150   1.000000
   47       -3.832407   1.000000
   48       -3.738444   1.000000
   49       -3.714933   1.000000
   50       -3.625469   1.000000
   51       -3.530033   1.000000
   52       -3.488133   1.000000
   53       -3.428586   1.000000
   54       -3.356491   1.000000
   55       -3.247346   1.000000
   56       -3.137730   1.000000
   57       -3.111771   1.000000
   58       -2.992336   1.000000
   59       -2.978611   1.000000
   60       -2.890284   1.000000
   61       -2.788493   1.000000
   62       -2.733045   1.000000
   63       -2.688705   1.000000
   64       -2.632320   1.000000
   65       -2.587867   1.000000
   66       -2.516933   1.000000
   67       -2.428580   1.000000
   68       -2.342847   1.000000
   69       -2.331301   1.000000
   70       -2.166761   1.000000
   71       -2.090466   1.000000
   72       -2.054140   1.000000
   73       -1.977637   1.000000
   74       -1.954450   1.000000
   75       -1.827941   1.000000
   76       -1.370785   1.000000
   77       -1.244122   1.000000
   78       -1.223954   1.000000
   79       -1.075123   1.000000
   80       -0.929710   1.000000
   81       -0.904708   1.000000
   82       -0.553829   1.000000
   83       -0.525622   1.000000
   84       -0.397658   1.000000
   85       -0.321226   1.000000
   86       -0.073946   1.000000
   87        0.105335   1.000000
   88        0.125851   1.000000
   89        0.243561   1.000000
   90        0.399499   1.000000
   91        0.614581   1.000361
   92        0.717170   1.017705
   93        0.857310   0.754706
   94        0.956372   0.050095
   95        0.993433  -0.029042
   96        1.089786  -0.007824
   97        1.112111  -0.003550
   98        1.210741  -0.000027
   99        1.248941  -0.000002
  100        1.458403  -0.000000
  101        1.489461  -0.000000
  102        1.510672  -0.000000
  103        1.596216  -0.000000
  104        1.622782  -0.000000
  105        1.676214  -0.000000
  106        1.715698  -0.000000
  107        1.946098  -0.000000
  108        2.035964  -0.000000
  109        2.041672  -0.000000
  110        2.072126  -0.000000
  111        2.147033  -0.000000
  112        2.158499  -0.000000
  113        2.230771  -0.000000
  114        2.259004  -0.000000
  115        2.295231  -0.000000
  116        2.358640  -0.000000
  117        2.393812  -0.000000
  118        2.433116  -0.000000
  119        2.450766  -0.000000
  120        2.550650  -0.000000
  121        2.613607  -0.000000
  122        2.623033  -0.000000
  123        2.705232  -0.000000
  124        2.722444  -0.000000
  125        2.787055  -0.000000
  126        2.831481  -0.000000

  0.2222222E+00  0.9090909E-01  0.1327369E-14  0.2020202E-01
    1      -12.888539   1.000000
    2      -12.055029   1.000000
    3      -11.657952   1.000000
    4      -11.055332   1.000000
    5      -10.585883   1.000000
    6      -10.497696   1.000000