   48   48    1    1
  0.2461586E+02  0.8645320E-09  0.6085000E-09  0.2593596E-08  0.5000000E-15
   1.0000000000000000E-004
  CAR 
 Name                                    
    188    149    120

  0.3742002E-15  0.3742002E-15  0.3742002E-15  0.3367003E-02
    1      -14.055398   1.000000
    2      -12.630990   1.000000
    3      -12.576924   1.000000
    4      -12.022172   1.000000
    5      -11.511992   1.000000
    6      -11.257066   1.000000
    7      -11.252841   1.000000
    8      -11.195263   1.000000
    9      -11.045939   1.000000
   10      -10.774539   1.000000
   11      -10.772883   1.000000
   12      -10.318675   1.000000
   13      -10.209927   1.000000
   14      -10.203536   1.000000
   15       -9.800924   1.000000
   16       -9.799389   1.000000
   17       -9.009215   1.000000
   18       -8.913885   1.000000
   19       -8.903916   1.000000
   20       -8.611972   1.000000
   21       -8.597399   1.000000
   22       -8.239101   1.000000
   23       -8.235701   1.000000
   24       -8.120909   1.000000
   25       -8.044484   1.000000
   26       -8.044280   1.000000
   27       -7.386496   1.000000
   28       -7.077854   1.000000
   29       -6.622233   1.000000
   30       -6.609456   1.000000
   31       -6.511479   1.000000
   32       -6.211788   1.000000
   33       -6.085395   1.000000
   34       -5.697074   1.000000
   35       -5.648143   1.000000
   36       -5.585880   1.000000
   37       -5.572641   1.000000
   38       -5.455167   1.000000
   39       -5.290379   1.000000
   40       -5.200608   1.000000
   41       -5.184530   1.000000
   42       -5.132788   1.000000
   43       -4.947322   1.000000
   44       -4.923822   1.000000
   45       -4.874312   1.000000
   46       -4.809659   1.000000
   47       -4.695738   1.000000
   48       -4.644423   1.000000
   49       -4.615366   1.000000
   50       -4.615122   1.000000
   51       -4.479688   1.000000
   52       -4.456496   1.000000
   53       -4.425400   1.000000
   54       -4.246592   1.000000
   55       -4.131166   1.000000
   56       -4.130787   1.000000
   57       -4.074090   1.000000
   58       -4.060652   1.000000
   59       -3.891129   1.000000
   60       -3.684435   1.000000
   61       -3.525016   1.000000
   62       -3.489919   1.000000
   63       -3.479113   1.000000
   64       -3.445859   1.000000
   65       -3.398353   1.000000
   66       -3.336543   1.000000
   67       -3.325563   1.000000
   68       -3.294115   1.000000
   69       -3.194741   1.000000
   70       -3.103629   1.000000
   71       -2.748058   1.000000
   72       -2.732380   1.000000
   73       -2.562904   1.000000
   74       -2.472944   1.000000
   75       -2.391134   1.000000
   76       -2.348229   1.000000
   77       -2.305063   1.000000
   78       -2.224517   1.000000
   79       -2.171221   1.000000
   80       -2.053744   1.000000
   81       -1.822418   1.000000
   82       -1.614712   1.000000
   83       -1.256160   1.000000
   84       -1.225957   1.000000
   85       -1.178218   1.000000
   86       -1.069505   1.000000
   87       -0.998699   1.000000
   88       -0.944308   1.000000
   89       -0.425424   1.000000
   90       -0.416156   1.000000
   91       -0.273062   1.000522
   92       -0.077126   0.963797
   93       -0.022707   0.639354
   94        0.021996   0.273181
   95        0.176575  -0.013467
   96        0.200311  -0.006489
   97        0.214192  -0.003950
   98        0.534608  -0.000000
   99        0.540184  -0.000000
  100        0.573553  -0.000000
  101        0.718112  -0.000000
  102        0.754432  -0.000000
  103        0.758547  -0.000000
  104        0.806764  -0.000000
  105        0.874536  -0.000000
  106        1.203480  -0.000000
  107        1.214742  -0.000000
  108        1.248783  -0.000000
  109        1.285286  -0.000000
  110        1.384373  -0.000000
  111        1.391754  -0.000000
  112        1.415609  -0.000000
  113        1.476204  -0.000000
  114        1.607475  -0.000000
  115        1.617497  -0.000000
  116        1.713428  -0.000000
  117        1.794789  -0.000000
  118        1.917680  -0.000000
  119        3.383637   0.000000
  120        3.845921   0.000000

  0.1111111E+00  0.3729374E-15  0.3860503E-15  0.6734007E-02
    1      -14.028458   1.000000
    2      -12.688992   1.000000
    3      -12.606744   1.000000
    4      -11.966419   1.000000
    5      -11.497805   1.000000
    6      -11.254921   1.000000
    7      -11.243127   1.000000
    8      -11.178381   1.000000
    9      -11.086245   1.000000
   10      -10.769926   1.000000
   11      -10.768697   1.000000
   12      -10.340529   1.000000
   13      -10.207338   1.000000
   14      -10.201627   1.000000
   15       -9.787834   1.000000
   16       -9.786205   1.000000
   17       -8.980722   1.000000
   18       -8.915493   1.000000
   19       -8.904294   1.000000
   20       -8.619175   1.000000
   21       -8.608342   1.000000
   22       -8.296372   1.000000
   23       -8.293351   1.000000
   24       -8.086918   1.000000
   25       -8.076234   1.000000
   26       -8.048567   1.000000
   27       -7.475793   1.000000
   28       -7.071794   1.000000
   29       -6.581051   1.000000
   30       -6.569922   1.000000
   31       -6.441256   1.000000
   32       -6.187590   1.000000
   33       -6.058053   1.000000
   34       -5.696612   1.000000
   35       -5.685984   1.000000
   36       -5.600138   1.000000
   37       -5.490024   1.000000
   38       -5.481743   1.000000
   39       -5.354634   1.000000
   40       -5.194569   1.000000
   41       -5.151437   1.000000
   42       -5.104881   1.000000
   43       -4.918892   1.000000
   44       -4.884628   1.000000
   45       -4.825030   1.000000
   46       -4.808252   1.000000
   47       -4.732129   1.000000
   48       -4.622595   1.000000
   49       -4.607344   1.000000
   50       -4.592120   1.000000
   51       -4.481568   1.000000
   52       -4.448194   1.000000
   53       -4.395476   1.000000
   54       -4.243480   1.000000
   55       -4.159379   1.000000
   56       -4.138315   1.000000
   57       -4.071947   1.000000
   58       -4.055409   1.000000
   59       -3.875424   1.000000
   60       -3.720145   1.000000
   61       -3.537275   1.000000
   62       -3.487538   1.000000
   63       -3.458912   1.000000
   64       -3.438201   1.000000
   65       -3.398547   1.000000
   66       -3.340733   1.000000
   67       -3.321511   1.000000
   68       -3.279239   1.000000
   69       -3.164884   1.000000
   70       -3.160674   1.000000
   71       -2.821970   1.000000
   72       -2.705868   1.000000
   73       -2.559400   1.000000
   74       -2.484030   1.000000
   75       -2.417761   1.000000
   76       -2.408337   1.000000
   77       -2.298616   1.000000
   78       -2.287444   1.000000
   79       -2.196934   1.000000
   80       -2.072016   1.000000
   81       -1.715549   1.000000
   82       -1.657798   1.000000
   83       -1.294518   1.000000
   84       -1.279288   1.000000
   85       -1.136035   1.000000
   86       -1.020907   1.000000
   87       -0.981009   1.000000
   88       -0.842517   1.000000
   89       -0.513034   1.000000
   90       -0.484507   1.000000
   91       -0.299610   1.000133
   92       -0.065937   0.919803
   93        0.036160   0.176049
   94        0.075546   0.006143
   95        0.139526  -0.029599
   96        0.187155  -0.009916
   97        0.194282  -0.007926
   98        0.510138  -0.000000
   99        0.564546  -0.000000
  100        0.574282  -0.000000
  101        0.744787  -0.000000
  102        0.767611  -0.000000
  103        0.785309  -0.000000
  104        0.828681  -0.000000
  105        0.918542  -0.000000
  106        1.200258  -0.000000
  107        1.211064  -0.000000
  108        1.230235  -0.000000
  109        1.322165  -0.000000
  110        1.379252  -0.000000
  111        1.407836  -0.000000
  112        1.455504  -0.000000
  113        1.506520  -0.000000
  114        1.614929  -0.000000
  115        1.649167  -0.000000
  116        1.681401  -0.000000
  117        1.878594  -0.000000
  118        1.938943  -0.000000
  119        2.908491   0.000000
  120        3.786257   0.000000

  0.2222222E+00  0.3922785E-15  0.3630220E-15  0.6734007E-02
    1      -13.948419   1.000000
    2      -12.921259   1.000000
    3      -12.535379   1.000000
    4      -11.916254   1.000000
    5      -11.458229   1.000000
    6      -11.256210   1.000000
    7      -11.223577   1.000000
    8      -11.155566   1.000000
    9      -11.121252   1.000000
   10      -10.756664   1.000000
   11      -10.755948   1.000000
   12      -10.421464   1.000000
   13      -10.205734   1.000000
   14      -10.201474   1.000000
   15       -9.745983   1.000000
   16       -9.744372   1.000000
   17       -8.926338   1.000000
   18       -8.915969   1.000000
   19       -8.861915   1.000000
   20       -8.651261   1.000000
   21       -8.649533   1.000000
   22       -8.418672   1.000000
   23       -8.417189   1.000000
   24       -8.162684   1.000000
   25       -8.162347   1.000000
   26       -7.890512   1.000000
   27       -7.690349   1.000000
   28       -7.005621   1.000000
   29       -6.529103   1.000000
   30       -6.502891   1.000000
   31       -6.269812   1.000000
   32       -6.228391   1.000000
   33       -5.981773   1.000000
   34       -5.853352   1.000000
   35       -5.630123   1.000000
   36       -5.593450   1.000000
   37       -5.425937   1.000000
   38       -5.355334   1.000000
   39       -5.322641   1.000000
   40       -5.160236   1.000000
   41       -5.122851   1.000000
   42       -5.024366   1.000000
   43       -5.010062   1.000000
   44       -4.899779   1.000000
   45       -4.808746   1.000000
   46       -4.714795   1.000000
   47       -4.702669   1.000000
   48       -4.591927   1.000000
   49       -4.571919   1.000000
   50       -4.547482   1.000000
   51       -4.442400   1.000000
   52       -4.434552   1.000000
   53       -4.330238   1.000000
   54       -4.248566   1.000000
   55       -4.175642   1.000000
   56       -4.169777   1.000000
   57       -4.048454   1.000000
   58       -4.028163   1.000000
   59       -3.856002   1.000000
   60       -3.801921   1.000000
   61       -3.580260   1.000000
   62       -3.518390   1.000000
   63       -3.454700   1.000000
   64       -3.407031   1.000000
   65       -3.402351   1.000000
   66       -3.332101   1.000000
   67       -3.308875   1.000000
   68       -3.259079   1.000000
   69       -3.236162   1.000000
   70       -3.072562   1.000000
   71       -2.961672   1.000000
   72       -2.646070   1.000000
   73       -2.603851   1.000000
   74       -2.578487   1.000000
   75       -2.519399   1.000000
   76       -2.493484   1.000000
   77       -2.418431   1.000000
   78       -2.285011   1.000000
   79       -2.278869   1.000000
   80       -2.027568   1.000000
   81       -1.793402   1.000000
   82       -1.484865   1.000000
   83       -1.386948   1.000000
   84       -1.363201   1.000000
   85       -1.057211   1.000000
   86       -0.919832   1.000000
   87       -0.912512   1.000000
   88       -0.706861   1.000000
   89       -0.620105   1.000000
   90       -0.602895   1.000000
   91       -0.388648   1.000000
   92       -0.122861   1.034937
   93        0.067693   0.027943
   94        0.114772  -0.035411
   95        0.129747  -0.033212
   96        0.181386  -0.011764
   97        0.357095  -0.000002
   98        0.488382  -0.000000
   99        0.527240  -0.000000
  100        0.531686  -0.000000
  101        0.815756  -0.000000
  102        0.823283  -0.000000
  103        0.858469  -0.000000
  104        0.875845  -0.000000
  105        0.998947  -0.000000
  106        1.146536  -0.000000
  107        1.251273  -0.000000
  108        1.251510  -0.000000
  109        1.359638  -0.000000
  110        1.408847  -0.000000
  111        1.420651  -0.000000
  112        1.518376  -0.000000
  113        1.550015  -0.000000
  114        1.601104  -0.000000
  115        1.658073  -0.000000
  116        1.699162  -0.000000
  117        1.773691  -0.000000
  118        1.920921  -0.000000
  119        1.966563  -0.000000
  120        2.715874  -0.000000

  0.3333333E+00  0.3713828E-15  0.3468587E-15  0.6734007E-02
    1      -13.817699   1.000000
    2      -13.178315   1.000000
    3      -12.421439   1.000000
    4      -11.972706   1.000000
    5      -11.402267   1.000000
    6      -11.272931   1.000000
    7      -11.205443   1.000000
    8      -11.183119   1.000000
    9      -11.021065   1.000000
   10      -10.738173   1.000000
   11      -10.737973   1.000000
   12      -10.559572   1.000000
   13      -10.213103   1.000000
   14      -10.210641   1.000000
   15       -9.678318   1.000000
   16       -9.677102   1.000000
   17       -8.920964   1.000000
   18       -8.918578   1.000000
   19       -8.730119   1.000000
   20       -8.724912   1.000000
   21       -8.702469   1.000000
   22       -8.519306   1.000000
   23       -8.511257   1.000000
   24       -8.265199   1.000000
   25       -8.260552   1.000000
   26       -7.953503   1.000000
   27       -7.644312   1.000000
   28       -6.844745   1.000000
   29       -6.606833   1.000000
   30       -6.461979   1.000000
   31       -6.459323   1.000000
   32       -6.069789   1.000000
   33       -5.944214   1.000000
   34       -5.852572   1.000000
   35       -5.511668   1.000000
   36       -5.491302   1.000000
   37       -5.322209   1.000000
   38       -5.302587   1.000000
   39       -5.238364   1.000000
   40       -5.202885   1.000000
   41       -5.095179   1.000000
   42       -5.059721   1.000000
   43       -4.993606   1.000000
   44       -4.863609   1.000000
   45       -4.799652   1.000000
   46       -4.707577   1.000000
   47       -4.674603   1.000000
   48       -4.547102   1.000000
   49       -4.528831   1.000000
   50       -4.505276   1.000000
   51       -4.408675   1.000000
   52       -4.369153   1.000000
   53       -4.283703   1.000000
   54       -4.226130   1.000000
   55       -4.208758   1.000000
   56       -4.107156   1.000000
   57       -4.017142   1.000000
   58       -3.966413   1.000000
   59       -3.954152   1.000000
   60       -3.770819   1.000000
   61       -3.680230   1.000000
   62       -3.535667   1.000000
   63       -3.522719   1.000000
   64       -3.454437   1.000000
   65       -3.388317   1.000000
   66       -3.382820   1.000000
   67       -3.286408   1.000000
   68       -3.257545   1.000000
   69       -3.125815   1.000000
   70       -3.019512   1.000000
   71       -2.957993   1.000000
   72       -2.794862   1.000000
   73       -2.785339   1.000000
   74       -2.614575   1.000000
   75       -2.614573   1.000000
   76       -2.513173   1.000000
   77       -2.491319   1.000000
   78       -2.366860   1.000000
   79       -2.317293   1.000000
   80       -1.963233   1.000000
   81       -1.860414   1.000000
   82       -1.543945   1.000000
   83       -1.472509   1.000000
   84       -1.199599   1.000000
   85       -0.952751   1.000000
   86       -0.895576   1.000000
   87       -0.837048   1.000000
   88       -0.818875   1.000000
   89       -0.759187   1.000000
   90       -0.480361   1.000000
   91       -0.323841   1.000033
   92       -0.290418   1.000217
   93        0.090418  -0.020979
   94        0.105481  -0.033299
   95        0.129190  -0.033380
   96        0.276488  -0.000241
   97        0.352625  -0.000002
   98        0.447228  -0.000000
   99        0.454789  -0.000000
  100        0.848397  -0.000000
  101        0.848667  -0.000000
  102        0.885762  -0.000000
  103        0.896989  -0.000000
  104        0.919195  -0.000000
  105        0.983240  -0.000000
  106        1.076884  -0.000000
  107        1.333603  -0.000000
  108        1.351162  -0.000000
  109        1.388469  -0.000000
  110        1.409113  -0.000000
  111        1.485793  -0.000000
  112        1.520322  -0.000000
  113        1.555268  -0.000000
  114        1.567422  -0.000000
  115        1.727977  -0.000000
  116        1.790842  -0.000000
  117        1.839396  -0.000000
  118        1.947883  -0.000000
  119        1.998709  -0.000000
  120        2.207093  -0.000000

  0.4444444E+00  0.3870091E-15  0.3932070E-15  0.6734007E-02
    1      -13.640613   1.000000
    2      -13.423967   1.000000
    3      -12.274251   1.000000
    4      -12.112242   1.000000
    5      -11.344286   1.000000
    6      -11.299752   1.000000
    7      -11.193112   1.000000
    8      -11.187477   1.000000
    9      -10.885157   1.000000
   10      -10.734285   1.000000
   11      -10.723198   1.000000
   12      -10.713479   1.000000
   13      -10.223294   1.000000
   14      -10.222549   1.000000
   15       -9.616210   1.000000
   16       -9.615702   1.000000
   17       -8.947817   1.000000
   18       -8.947235   1.000000
   19       -8.764255   1.000000
   20       -8.763627   1.000000
   21       -8.594028   1.000000
   22       -8.576182   1.000000
   23       -8.464106   1.000000
   24       -8.336454   1.000000
   25       -8.324611   1.000000
   26       -8.217268   1.000000
   27       -7.329098   1.000000
   28       -6.967585   1.000000
   29       -6.615757   1.000000
   30       -6.463081   1.000000
   31       -6.438527   1.000000
   32       -6.321964   1.000000
   33       -5.687312   1.000000
   34       -5.647798   1.000000
   35       -5.502563   1.000000
   36       -5.425258   1.000000
   37       -5.368794   1.000000
   38       -5.327208   1.000000
   39       -5.242694   1.000000
   40       -5.239365   1.000000
   41       -5.060050   1.000000
   42       -4.985699   1.000000
   43       -4.923755   1.000000
   44       -4.845167   1.000000
   45       -4.760596   1.000000
   46       -4.734735   1.000000
   47       -4.692877   1.000000
   48       -4.584912   1.000000
   49       -4.455045   1.000000
   50       -4.433346   1.000000
   51       -4.375924   1.000000
   52       -4.369478   1.000000
   53       -4.309309   1.000000
   54       -4.172919   1.000000
   55       -4.150752   1.000000
   56       -4.117327   1.000000
   57       -4.013415   1.000000
   58       -3.910482   1.000000
   59       -3.909371   1.000000
   60       -3.816054   1.000000
   61       -3.731851   1.000000
   62       -3.632694   1.000000
   63       -3.514793   1.000000
   64       -3.513847   1.000000
   65       -3.363538   1.000000
   66       -3.363077   1.000000
   67       -3.269923   1.000000
   68       -3.259062   1.000000
   69       -3.066987   1.000000
   70       -3.042251   1.000000
   71       -2.936633   1.000000
   72       -2.918905   1.000000
   73       -2.790285   1.000000
   74       -2.723809   1.000000
   75       -2.701100   1.000000
   76       -2.635532   1.000000
   77       -2.415972   1.000000
   78       -2.390150   1.000000
   79       -2.281414   1.000000
   80       -2.141011   1.000000
   81       -1.723472   1.000000
   82       -1.650710   1.000000
   83       -1.422666   1.000000
   84       -1.205852   1.000000
   85       -1.046193   1.000000
   86       -0.915475   1.000000
   87       -0.811888   1.000000
   88       -0.789585   1.000000
   89       -0.554479   1.000000
   90       -0.505778   1.000000
   91       -0.461520   1.000000
   92       -0.206606   1.007835
   93        0.022315   0.270820
   94        0.133680  -0.031894
   95        0.143919  -0.027695
   96        0.256587  -0.000648
   97        0.375829  -0.000000
   98        0.378366  -0.000000
   99        0.597547  -0.000000
  100        0.772362  -0.000000
  101        0.881959  -0.000000
  102        0.884290  -0.000000
  103        0.926630  -0.000000
  104        0.947425  -0.000000
  105        1.177073  -0.000000
  106        1.223154  -0.000000
  107        1.286796  -0.000000
  108        1.402296  -0.000000
  109        1.427396  -0.000000
  110        1.500989  -0.000000
  111        1.504896  -0.000000
  112        1.543476  -0.000000
  113        1.554342  -0.000000
  114        1.588785  -0.000000
  115        1.615546  -0.000000
  116        1.792233  -0.000000
  117        1.977349  -0.000000
  118        2.082437  -0.000000
  119        2.178590  -0.000000
  120        2.205694  -0.000000

  0.3742002E-15  0.9090909E-01  0.3596334E-15  0.6734007E-02
    1      -14.022354   1.000000
    2      -12.602023   1.000000
    3      -12.581354   1.000000
    4      -11.990570   1.000000
    5      -11.498459   1.000000
    6      -11.437221   1.000000
    7      -11.376939   1.000000
    8      -11.183672   1.000000
    9      -11.049566   1.000000
   10      -10.764653   1.000000
   11      -10.743323   1.000000
   12      -10.305324   1.000000
   13      -10.166956   1.000000
   14      -10.156735   1.000000
   15       -9.788585   1.000000
   16       -9.784679   1.000000
   17       -9.056641   1.000000
   18       -8.997868   1.000000
   19       -8.957000   1.000000
   20       -8.652941   1.000000
   21       -8.619444   1.000000
   22       -8.077954   1.000000
   23       -8.072649   1.000000
   24       -8.009457   1.000000
   25       -7.927405   1.000000
   26       -7.924943   1.000000
   27       -7.441210   1.000000
   28       -7.045744   1.000000
   29       -6.647852   1.000000
   30       -6.593669   1.000000
   31       -6.479194   1.000000
   32       -6.204173   1.000000
   33       -6.108998   1.000000
   34       -5.764520   1.000000
   35       -5.666986   1.000000
   36       -5.526193   1.000000
   37       -5.501784   1.000000
   38       -5.466741   1.000000
   39       -5.325456   1.000000
   40       -5.253289   1.000000
   41       -5.216141   1.000000
   42       -5.132710   1.000000
   43       -5.092098   1.000000
   44       -4.941102   1.000000
   45       -4.863424   1.000000
   46       -4.858707   1.000000
   47       -4.747634   1.000000
   48       -4.642614   1.000000
   49       -4.639503   1.000000
   50       -4.604450   1.000000
   51       -4.510429   1.000000
   52       -4.453102   1.000000
   53       -4.435654   1.000000
   54       -4.317965   1.000000
   55       -4.175596   1.000000
   56       -4.088693   1.000000
   57       -4.060914   1.000000
   58       -3.986332   1.000000
   59       -3.943201   1.000000
   60       -3.662659   1.000000
   61       -3.551726   1.000000
   62       -3.526452   1.000000
   63       -3.494611   1.000000
   64       -3.426367   1.000000
   65       -3.408376   1.000000
   66       -3.321215   1.000000
   67       -3.315716   1.000000
   68       -3.266301   1.000000
   69       -3.173137   1.000000
   70       -3.112655   1.000000
   71       -2.906137   1.000000
   72       -2.724523   1.000000
   73       -2.462685   1.000000
   74       -2.449926   1.000000
   75       -2.413335   1.000000
   76       -2.369313   1.000000
   77       -2.316456   1.000000
   78       -2.235282   1.000000
   79       -2.125795   1.000000
   80       -2.064220   1.000000
   81       -1.838396   1.000000
   82       -1.544511   1.000000
   83       -1.307668   1.000000
   84       -1.264369   1.000000
   85       -1.227563   1.000000
   86       -1.063578   1.000000
   87       -1.040813   1.000000
   88       -1.001816   1.000000
   89       -0.539250   1.000000
   90       -0.380919   1.000001
   91       -0.296539   1.000157
   92       -0.125874   1.035351
   93       -0.125364   1.035304
   94       -0.048333   0.825234
   95        0.147302  -0.026166
   96        0.189603  -0.009196
   97        0.227035  -0.002390
   98        0.412489  -0.000000
   99        0.413262  -0.000000
  100        0.557399  -0.000000
  101        0.809155  -0.000000
  102        0.816768  -0.000000
  103        0.851727  -0.000000
  104        0.935757  -0.000000
  105        1.022633  -0.000000
  106        1.120431  -0.000000
  107        1.152607  -0.000000
  108        1.272694  -0.000000
  109        1.291669  -0.000000
  110        1.373295  -0.000000
  111        1.391135  -0.000000
  112        1.458606  -0.000000
  113        1.505041  -0.000000
  114        1.625362  -0.000000
  115        1.635078  -0.000000
  116        1.719423  -0.000000
  117        1.740543  -0.000000
  118        1.795571  -0.000000
  119        1.970053  -0.000000
  120        2.759976   0.000000

  0.1111111E+00  0.9090909E-01  0.4822234E-15  0.6734007E-02
    1      -13.973662   1.000000
    2      -12.757443   1.000000
    3      -12.558242   1.000000
    4      -11.919103   1.000000
    5      -11.482140   1.000000
    6      -11.470498   1.000000
    7      -11.324701   1.000000
    8      -11.144288   1.000000
    9      -11.116982   1.000000
   10      -10.770354   1.000000
   11      -10.678441   1.000000
   12      -10.348401   1.000000
   13      -10.222278   1.000000
   14      -10.173567   1.000000
   15       -9.746550   1.000000
   16       -9.727784   1.000000
   17       -9.090167   1.000000
   18       -8.966469   1.000000
   19       -8.909881   1.000000
   20       -8.728956   1.000000
   21       -8.637097   1.000000
   22       -8.228354   1.000000
   23       -8.048295   1.000000
   24       -7.984326   1.000000
   25       -7.951758   1.000000
   26       -7.932240   1.000000
   27       -7.577803   1.000000
   28       -7.023571   1.000000
   29       -6.669456   1.000000
   30       -6.477969   1.000000
   31       -6.336059   1.000000
   32       -6.176084   1.000000
   33       -6.102811   1.000000
   34       -5.845038   1.000000
   35       -5.640447   1.000000
   36       -5.526795   1.000000
   37       -5.444157   1.000000
   38       -5.425791   1.000000
   39       -5.398797   1.000000
   40       -5.199460   1.000000
   41       -5.175230   1.000000
   42       -5.144339   1.000000
   43       -5.086077   1.000000
   44       -4.891673   1.000000
   45       -4.858357   1.000000
   46       -4.742801   1.000000
   47       -4.737344   1.000000
   48       -4.613109   1.000000
   49       -4.597077   1.000000
   50       -4.576145   1.000000
   51       -4.519675   1.000000
   52       -4.486980   1.000000
   53       -4.395908   1.000000
   54       -4.319844   1.000000
   55       -4.192559   1.000000
   56       -4.099201   1.000000
   57       -4.057385   1.000000
   58       -3.989846   1.000000
   59       -3.908638   1.000000
   60       -3.708052   1.000000
   61       -3.584177   1.000000
   62       -3.544310   1.000000
   63       -3.496223   1.000000
   64       -3.429673   1.000000
   65       -3.408886   1.000000
   66       -3.300135   1.000000
   67       -3.298863   1.000000
   68       -3.261408   1.000000
   69       -3.161917   1.000000
   70       -3.137102   1.000000
   71       -2.969151   1.000000
   72       -2.683387   1.000000
   73       -2.545039   1.000000
   74       -2.498638   1.000000
   75       -2.479502   1.000000
   76       -2.437867   1.000000
   77       -2.325348   1.000000
   78       -2.301195   1.000000
   79       -2.122645   1.000000
   80       -2.073417   1.000000
   81       -1.828836   1.000000
   82       -1.512671   1.000000
   83       -1.420186   1.000000
   84       -1.353202   1.000000
   85       -1.178068   1.000000
   86       -1.016355   1.000000
   87       -0.882519   1.000000
   88       -0.832751   1.000000
   89       -0.625364   1.000000
   90       -0.514780   1.000000
   91       -0.295213   1.000168
   92       -0.133063   1.035151
   93       -0.096642   1.012521
   94        0.099720  -0.030078
   95        0.109688  -0.034677
   96        0.179907  -0.012272
   97        0.195488  -0.007621
   98        0.345354  -0.000004
   99        0.374074  -0.000001
  100        0.722630  -0.000000
  101        0.785503  -0.000000
  102        0.819432  -0.000000
  103        0.891961  -0.000000
  104        0.995534  -0.000000
  105        1.003909  -0.000000
  106        1.099595  -0.000000
  107        1.227365  -0.000000
  108        1.240245  -0.000000
  109        1.321358  -0.000000
  110        1.329916  -0.000000
  111        1.440918  -0.000000
  112        1.497677  -0.000000
  113        1.569320  -0.000000
  114        1.602733  -0.000000
  115        1.679292  -0.000000
  116        1.697714  -0.000000
  117        1.762646  -0.000000
  118        1.934472  -0.000000
  119        2.094977  -0.000000
  120        3.107204   0.000000

  0.2222222E+00  0.9090909E-01  0.3065600E-15  0.6734007E-02
    1      -13.872922   1.000000
    2      -13.003944   1.000000
    3      -12.469229   1.000000
    4      -11.909934   1.000000
    5      -11.516336   1.000000
    6      -11.423140   1.000000
    7      -11.273226   1.000000
    8      -11.193263   1.000000
    9      -11.064611   1.000000
   10      -10.739657   1.000000
   11      -10.590807   1.000000
   12      -10.454715   1.000000
   13      -10.308099   1.000000
   14      -10.213952   1.000000
   15       -9.665697   1.000000
   16       -9.624864   1.000000
   17       -9.105015   1.000000
   18       -9.025498   1.000000
   19       -8.811828   1.000000
   20       -8.747874   1.000000
   21       -8.714043   1.000000
   22       -8.387016   1.000000
   23       -8.156840   1.000000
   24       -8.021981   1.000000
   25       -7.986614   1.000000
   26       -7.799032   1.000000
   27       -7.764199   1.000000
   28       -6.921572   1.000000
   29       -6.682197   1.000000
   30       -6.378052   1.000000
   31       -6.350426   1.000000
   32       -6.088437   1.000000
   33       -6.079821   1.000000
   34       -5.898885   1.000000
   35       -5.646931   1.000000
   36       -5.424024   1.000000
   37       -5.413710   1.000000
   38       -5.339323   1.000000
   39       -5.318110   1.000000
   40       -5.229820   1.000000
   41       -5.157776   1.000000
   42       -5.065393   1.000000
   43       -5.057505   1.000000
   44       -4.879015   1.000000
   45       -4.833790   1.000000
   46       -4.713651   1.000000
   47       -4.709184   1.000000
   48       -4.622899   1.000000