ESCALE ; pCOHP file generated by LOBSTER. Energy is shifted such that the Fermi level lies at 0 eV.
       353          1        501  -7.82629e+00   1.72238e+01   8.20577e+00 
Average
No.1:Mo3->Mo1(3.0213616763856477)
No.2:Mo3->Mo1(3.0214336194760891)
No.3:V5->Mo1(3.0213490322118837)
No.4:V5->Mo1(3.0212103601769003)
No.5:V7->Mo1(3.0213131701668181)
No.6:V7->Mo1(3.0212758362677503)
No.7:B8->Mo1(2.3447139557644081)
No.8:B9->Mo1(2.34411839219212)
No.9:B10->Mo1(2.3447327059821883)
No.10:B11->Mo1(2.3440859605885085)
No.11:B12->Mo1(2.3447372126062516)
No.12:B13->Mo1(2.3441556477995844)
No.13:B14->Mo1(2.3447481289701617)
No.14:B15->Mo1(2.3441282148946665)
No.15:B16->Mo1(2.3584120880305846)
No.16:B17->Mo1(2.3577574120433518)
No.17:B18->Mo1(2.3584112396868826)
No.18:B19->Mo1(2.3578107153006056)
No.19:B20->Mo1(3.8227402019776791)
No.20:B20->Mo1(3.7877030911586478)
No.21:B20->Mo1(3.8226911151224545)
No.22:B21->Mo1(3.821281589792338)
No.23:B21->Mo1(3.7863240206791327)
No.24:B21->Mo1(3.8212097028296421)
No.25:B22->Mo1(3.8226953523531835)
No.26:B22->Mo1(3.7876268934078112)
No.27:B22->Mo1(3.822750403085287)
No.28:B23->Mo1(3.8212371006316648)
No.29:B23->Mo1(3.7862596435331346)
No.30:B23->Mo1(3.8212741320752244)
No.31:Mo3->Mo2(3.0695641155017186)
No.32:Mo3->Mo2(3.0682929598781188)
No.33:V4->Mo2(3.0214229760919649)
No.34:V4->Mo2(3.0211655924387468)
No.35:V6->Mo2(3.0212682317500961)
No.36:V6->Mo2(3.0212907308626913)
No.37:B8->Mo2(2.3110409244819552)
No.38:B9->Mo2(2.3093985428429198)
No.39:B10->Mo2(2.3110917175040604)
No.40:B11->Mo2(2.3094282743884156)
No.41:B12->Mo2(2.3110876691851945)
No.42:B13->Mo2(2.3094021668051781)
No.43:B14->Mo2(2.3110688813224542)
No.44:B15->Mo2(2.3093989439401579)
No.45:B16->Mo2(3.788970086400798)
No.46:B16->Mo2(3.7920576780936375)
No.47:B16->Mo2(3.7888618519168387)
No.48:B17->Mo2(3.7884677290013675)
No.49:B17->Mo2(3.7907235507007968)
No.50:B17->Mo2(3.7884553661261529)
No.51:B18->Mo2(3.7888943957116075)
No.52:B18->Mo2(3.7922092562730851)
No.53:B18->Mo2(3.7888470216440768)
No.54:B19->Mo2(3.7884498807151861)
No.55:B19->Mo2(3.7907977282769778)
No.56:B19->Mo2(3.7884546920628996)
No.57:B20->Mo2(2.3439998171633314)
No.58:B21->Mo2(2.3439300633693883)
No.59:B22->Mo2(2.3439367474192672)
No.60:B23->Mo2(2.3438624804822856)
No.61:V5->Mo3(3.0212716155698369)
No.62:V5->Mo3(3.021316768818894)
No.63:V7->Mo3(3.0212660932812048)
No.64:V7->Mo3(3.0212926800307369)
No.65:B8->Mo3(2.3833147180515426)
No.66:B9->Mo3(2.3843607968510736)
No.67:B10->Mo3(2.3833413062778903)
No.68:B11->Mo3(2.3843713153097537)
No.69:B12->Mo3(2.3833017643340231)
No.70:B13->Mo3(2.3843273417962343)
No.71:B14->Mo3(2.383259116430009)
No.72:B15->Mo3(2.3842664186444149)
No.73:B16->Mo3(3.8324514997847059)
No.74:B16->Mo3(3.8356235759098292)
No.75:B16->Mo3(3.8323488472198504)
No.76:B17->Mo3(3.8329893944642723)
No.77:B17->Mo3(3.8353037517043109)
No.78:B17->Mo3(3.8329297397938089)
No.79:B18->Mo3(3.8324132198213539)
No.80:B18->Mo3(3.835575336342663)
No.81:B18->Mo3(3.8323707375908307)
No.82:B19->Mo3(3.8330059908004728)
No.83:B19->Mo3(3.8351944334802091)
No.84:B19->Mo3(3.8329633112397241)
No.85:B20->Mo3(2.3411075551740659)
No.86:B21->Mo3(2.3402260946274196)
No.87:B22->Mo3(2.3411065807412044)
No.88:B23->Mo3(2.3402295631743253)
No.89:V5->V4(3.0685529821726307)
No.90:V5->V4(3.0693040934777485)
No.91:V6->V4(3.0214086308966679)
No.92:V6->V4(3.0213862201270176)
No.93:B8->V4(2.2803907773085936)
No.94:B9->V4(2.2795686684673222)
No.95:B10->V4(2.2804424997121808)
No.96:B11->V4(2.2796747217640001)
No.97:B12->V4(3.8098388710921935)
No.98:B12->V4(3.7972528986682792)
No.99:B12->V4(3.7607461318917492)
No.100:B13->V4(3.8093472671728588)
No.101:B13->V4(3.7969156278138256)
No.102:B13->V4(3.760238747228807)
No.103:B14->V4(3.7607240949573519)
No.104:B14->V4(3.7971820873953344)
No.105:B14->V4(3.8098998698511894)
No.106:B15->V4(3.7601950152672496)
No.107:B15->V4(3.796756305762965)
No.108:B15->V4(3.809515344035145)
No.109:B16->V4(2.2885446502887934)
No.110:B17->V4(2.2880372073990132)
No.111:B18->V4(2.2885780414715442)
No.112:B19->V4(2.2880976420765227)
No.113:B20->V4(2.3149728565350651)
No.114:B21->V4(2.3160475794041031)
No.115:B22->V4(2.3149317715672137)
No.116:B23->V4(2.3159686418802008)
No.117:V7->V5(3.0213706914555916)
No.118:V7->V5(3.0214241616183908)
No.119:B8->V5(2.3539708448883117)
No.120:B9->V5(2.3551967403034633)
No.121:B10->V5(2.3539461186005606)
No.122:B11->V5(2.3551724274477519)
No.123:B12->V5(3.8543052048718005)
No.124:B12->V5(3.841746277224324)
No.125:B12->V5(3.8057705358227247)
No.126:B13->V5(3.8550675793129421)
No.127:B13->V5(3.8426305421519578)
No.128:B13->V5(3.8064812337452092)
No.129:B14->V5(3.8057121502755873)
No.130:B14->V5(3.8418464412146611)
No.131:B14->V5(3.8542986112696798)
No.132:B15->V5(3.8064498029046052)
No.133:B15->V5(3.8426572501973246)
No.134:B15->V5(3.8551115694843658)
No.135:B16->V5(2.3602178534622715)
No.136:B17->V5(2.3607008643999809)
No.137:B18->V5(2.3602304866506065)
No.138:B19->V5(2.3607082197799709)
No.139:B20->V5(2.3124440111775066)
No.140:B21->V5(2.3119291597678395)
No.141:B22->V5(2.3124066832180374)
No.142:B23->V5(2.3119206158687833)
No.143:V7->V6(3.0685469220751753)
No.144:V7->V6(3.0693101533746785)
No.145:B8->V6(3.7606778214061536)
No.146:B8->V6(3.7971653256422271)
No.147:B8->V6(3.8099444614541027)
No.148:B9->V6(3.7601017192546839)
No.149:B9->V6(3.7968040205747418)
No.150:B9->V6(3.8095320995431896)
No.151:B10->V6(3.8098359487014979)
No.152:B10->V6(3.7971486591166879)
No.153:B10->V6(3.7607608910360422)
No.154:B11->V6(3.8094254033417823)
No.155:B11->V6(3.7967598261112236)
No.156:B11->V6(3.7602488062242312)
No.157:B12->V6(2.2804299599183775)
No.158:B13->V6(2.2796033414542429)
No.159:B14->V6(2.2803894790059025)
No.160:B15->V6(2.2796344217357531)
No.161:B16->V6(2.2885546709545235)
No.162:B17->V6(2.2881291241785471)
No.163:B18->V6(2.2885542304219118)
No.164:B19->V6(2.2880331042069768)
No.165:B20->V6(2.3149270020436719)
No.166:B21->V6(2.3159802492341863)
No.167:B22->V6(2.3150223961178935)
No.168:B23->V6(2.3160897643969012)
No.169:B8->V7(3.8057174027355876)
No.170:B8->V7(3.8418202316861203)
No.171:B8->V7(3.8543335420933653)
No.172:B9->V7(3.8064271033947952)
No.173:B9->V7(3.8426953171332814)
No.174:B9->V7(3.8551372409292468)
No.175:B10->V7(3.8543826839611279)
No.176:B10->V7(3.8417243432918045)
No.177:B10->V7(3.8058062718982657)
No.178:B11->V7(3.8552077941205982)
No.179:B11->V7(3.8425580293183264)
No.180:B11->V7(3.8064947512858112)
No.181:B12->V7(2.3538489232365318)
No.182:B13->V7(2.3550530256606859)
No.183:B14->V7(2.3539317261914547)
No.184:B15->V7(2.3551989515978895)
No.185:B16->V7(2.3602412762283382)
No.186:B17->V7(2.3607647067740025)
No.187:B18->V7(2.360190561621176)
No.188:B19->V7(2.3606740521101797)
No.189:B20->V7(2.3124857427580974)
No.190:B21->V7(2.3119951992854633)
No.191:B22->V7(2.3124068709803232)
No.192:B23->V7(2.3119113604951598)
No.193:B9->B8(3.1814969990701356)
No.194:B9->B8(2.9563600790003139)
No.195:B10->B8(3.5507918916918948)
No.196:B10->B8(3.4719572965863712)
No.197:B10->B8(3.4443081474564381)
No.198:B12->B8(3.0830000840018688)
No.199:B12->B8(2.9597947671323479)
No.200:B14->B8(1.7616104678938174)
No.201:B15->B8(3.6366349470736794)
No.202:B15->B8(3.4414497570615619)
No.203:B16->B8(3.0314861514922753)
No.204:B16->B8(3.0113672549676873)
No.205:B18->B8(1.7121690958994)
No.206:B19->B8(3.6113052313781377)
No.207:B19->B8(3.4183546827036944)
No.208:B20->B8(3.0667380633713508)
No.209:B20->B8(2.9769719942563904)
No.210:B22->B8(1.7803759629623506)
No.211:B23->B8(3.5929297879243074)
No.212:B23->B8(3.5022222784180639)
No.213:B11->B9(3.5510019578222161)
No.214:B11->B9(3.4718138898029554)
No.215:B11->B9(3.4442468499201602)
No.216:B13->B9(3.0831044374246792)
No.217:B13->B9(2.9596904148384877)
No.218:B14->B9(3.4414762524832048)
No.219:B14->B9(3.636675884935503)
No.220:B15->B9(1.7617265380737337)
No.221:B17->B9(3.0308753862802131)
No.222:B17->B9(3.0119868245793744)
No.223:B18->B9(3.4173936137304999)
No.224:B18->B9(3.6117981871537226)
No.225:B19->B9(1.7124273467023778)
No.226:B21->B9(3.0668413696595413)
No.227:B21->B9(2.9769746680631424)
No.228:B22->B9(3.4999449125227806)
No.229:B22->B9(3.5952974270494993)
No.230:B23->B9(1.7804466939629457)
No.231:B11->B10(3.1815327071013995)
No.232:B11->B10(2.956324368823362)
No.233:B12->B10(1.7615770397094288)
No.234:B13->B10(3.6366617757419859)
No.235:B13->B10(3.4414784050449643)
No.236:B14->B10(2.9598402975507421)
No.237:B14->B10(3.0829545548158959)
No.238:B16->B10(1.712229618292227)
No.239:B17->B10(3.6113785231714659)
No.240:B17->B10(3.4182531237032014)
No.241:B18->B10(3.0113724158284483)
No.242:B18->B10(3.0314798684294475)
No.243:B20->B10(1.7803537725558058)
No.244:B21->B10(3.5929720897191286)
No.245:B21->B10(3.5021652543393307)
No.246:B22->B10(2.9769989687755807)
No.247:B22->B10(3.0667142293898575)
No.248:B12->B11(3.4414594972951265)
No.249:B12->B11(3.6366217580117599)
No.250:B13->B11(1.76174487067368)
No.251:B15->B11(2.9596936224347825)
No.252:B15->B11(3.0831012284513224)
No.253:B16->B11(3.4174056921587348)
No.254:B16->B11(3.611869894308593)
No.255:B17->B11(1.7124216279214219)
No.256:B19->B11(3.0119989350542951)
No.257:B19->B11(3.030863454038518)
No.258:B20->B11(3.4998823852954608)
No.259:B20->B11(3.595351845057559)
No.260:B21->B11(1.7804434327084047)
No.261:B23->B11(2.9770323909341223)
No.262:B23->B11(3.0667851687737948)
No.263:B13->B12(3.1813955600255066)
No.264:B13->B12(2.956461517411209)
No.265:B14->B12(3.4444456929538232)
No.266:B14->B12(3.4718641530664831)
No.267:B14->B12(3.550746448664611)
No.268:B16->B12(3.0114534627677285)
No.269:B16->B12(3.0314282091986988)
No.270:B18->B12(1.7121948131285367)
No.271:B19->B12(3.6112801402348675)
No.272:B19->B12(3.4183760060392294)
No.273:B20->B12(2.9769793631427119)
No.274:B20->B12(3.0666988447969552)
No.275:B22->B12(1.7803639225441052)
No.276:B23->B12(3.5928778085153681)
No.277:B23->B12(3.5022723173509296)
No.278:B15->B13(3.444436485604315)
No.279:B15->B13(3.4717281628281955)
No.280:B15->B13(3.5508951869448073)
No.281:B17->B13(3.0120782747538049)
No.282:B17->B13(3.0308128312546563)
No.283:B18->B13(3.4174922450213843)
No.284:B18->B13(3.6117643957213024)
No.285:B19->B13(1.7124657038826658)
No.286:B21->B13(2.9769906841458393)
No.287:B21->B13(3.0667923913350843)
No.288:B22->B13(3.4999439448079244)
No.289:B22->B13(3.5952239976877429)
No.290:B23->B13(1.7803801263281733)
No.291:B15->B14(3.1814541101764835)
No.292:B15->B14(2.9564029647496137)
No.293:B16->B14(1.7121822708715997)
No.294:B17->B14(3.6113349398337848)
No.295:B17->B14(3.4183242120921529)
No.296:B18->B14(3.0314262298233037)
No.297:B18->B14(3.0114557521210892)
No.298:B20->B14(1.7803398202908718)
No.299:B21->B14(3.5929354176992847)
No.300:B21->B14(3.5021852794430912)
No.301:B22->B14(3.0667124818239619)
No.302:B22->B14(2.9769685923481428)
No.303:B16->B15(3.4174031854530953)
No.304:B16->B15(3.611844814538522)
No.305:B17->B15(1.7124700397149122)
No.306:B19->B15(3.0308162343008127)
No.307:B19->B15(3.0120748887830064)
No.308:B20->B15(3.4999207888892747)
No.309:B20->B15(3.5953112055101726)
No.310:B21->B15(1.7804365705570622)
No.311:B23->B15(3.0667496941329362)
No.312:B23->B15(2.9770364608136921)
No.313:B17->B16(3.1782702071417237)
No.314:B17->B16(2.9595870005341185)
No.315:B18->B16(3.491193875781252)
No.316:B18->B16(3.483774529866277)
No.317:B18->B16(3.4912086773120352)
No.318:B20->B16(3.0220499234470406)
No.319:B20->B16(3.0220460823210997)
No.320:B22->B16(1.7222582192258642)
No.321:B23->B16(3.5635059175220691)
No.322:B23->B16(3.474173282806631)
No.323:B19->B17(3.4905377030398861)
No.324:B19->B17(3.4851319048548208)
No.325:B19->B17(3.4905050837909961)
No.326:B21->B17(3.0221210111770804)
No.327:B21->B17(3.0220338484574913)
No.328:B22->B17(3.472179907503528)
No.329:B22->B17(3.564808510154938)
No.330:B23->B17(1.7217593093369332)
No.331:B19->B18(3.1781707776874608)
No.332:B19->B18(2.9596864630488007)
No.333:B20->B18(1.7222689825754798)
No.334:B21->B18(3.563496833342684)
No.335:B21->B18(3.4741961506301977)
No.336:B22->B18(3.0220223380729685)
No.337:B22->B18(3.0220739201661835)
No.338:B20->B19(3.472142518103428)
No.339:B20->B19(3.5647856829581444)
No.340:B21->B19(1.7216949325433895)
No.341:B23->B19(3.0220621696460896)
No.342:B23->B19(3.0220911987005667)
No.343:B21->B20(3.0639893996598344)
No.344:B21->B20(3.0738676754584975)
No.345:B22->B20(3.4636106129477562)
No.346:B22->B20(3.5394485854061934)
No.347:B22->B20(3.4636738893321377)
No.348:B23->B21(3.4636851742686328)
No.349:B23->B21(3.5392907473850443)
No.350:B23->B21(3.4637536793352872)
No.351:B23->B22(3.0639002788518219)
No.352:B23->B22(3.0739567962762848)
-16.03206   0.00000   0.00000   0.00000   0.00000   0.00000   0.00000   0.00000   0.00000   0.00000   0.00000   0.00000   0.00000   0.00000   0.00000   0.00000   0.00000   0.00000   0.00000   0.00000   0.00000   0.00000   0.00000   0.00000   0.00000   0.00000   0.00000   0.00000   0.00000   0.00000   0.00000   0.00000   0.00000   0.00000   0.00000   0.00000   0.00000   0.00000   0.00000   0.00000   0.00000   0.00000   0.00000   0.00000   0.00000   0.00000   0.00000   0.00000   0.00000   0.00000   0.00000   0.00000   0.00000   0.00000   0.00000   0.00000   0.00000   0.00000   0.00000   0.00000   0.00000   0.00000   0.00000   0.00000   0.00000   0.00000   0.00000   0.00000   0.00000   0.00000   0.00000   0.00000   0.00000   0.00000   0.00000   0.00000   0.00000   0.00000   0.00000   0.00000   0.00000   0.00000   0.00000   0.00000   0.00000   0.00000   0.00000   0.00000   0.00000   0.00000   0.00000   0.00000   0.00000   0.00000   0.00000   0.00000   0.00000   0.00000   0.00000   0.00000   0.00000   0.00000   0.00000   0.00000   0.00000   0.00000   0.00000   0.00000   0.00000   0.00000   0.00000   0.00000   0.00000   0.00000   0.00000   0.00000   0.00000   0.00000   0.00000   0.00000   0.00000   0.00000   0.00000   0.00000   0.00000   0.00000   0.00000   0.00000   0.00000   0.00000   0.00000   0.00000   0.00000   0.00000   0.00000   0.00000   0.00000   0.00000   0.00000   0.00000   0.00000   0.00000   0.00000   0.00000   0.00000   0.00000   0.00000   0.00000   0.00000   0.00000   0.00000   0.00000   0.00000   0.00000   0.00000   0.00000   0.00000   0.00000   0.00000   0.00000   0.00000   0.00000   0.00000   0.00000   0.00000   0.00000   0.00000   0.00000   0.00000   0.00000   0.00000   0.00000   0.00000   0.00000   0.00000   0.00000   0.00000   0.00000   0.00000   0.00000   0.00000   0.00000   0.00000   0.00000   0.00000   0.00000   0.00000   0.00000   0.00000   0.00000   0.00000   0.00000   0.00000   0.00000   0.00000   0.00000   0.00000   0.00000   0.00000   0.00000   0.00000   0.00000   0.00000   0.00000   0.00000   0.00000   0.00000   0.00000   0.00000   0.00000   0.00000   0.00000   0.00000   0.00000   0.00000   0.00000   0.00000   0.00000   0.00000   0.00000   0.00000   0.00000   0.00000   0.00000   0.00000   0.00000   0.00000   0.00000   0.00000   0.00000   0.00000   0.00000   0.00000   0.00000   0.00000   0.00000   0.00000   0.00000   0.00000   0.00000   0.00000   0.00000   0.00000   0.00000   0.00000   0.00000   0.00000   0.00000   0.00000   0.00000   0.00000   0.00000   0.00000   0.00000   0.00000   0.00000   0.00000   0.00000   0.00000   0.00000   0.00000   0.00000   0.00000   0.00000   0.00000   0.00000   0.00000   0.00000   0.00000   0.00000   0.00000   0.00000   0.00000   0.00000   0.00000   0.00000   0.00000   0.00000   0.00000   0.00000   0.00000   0.00000   0.00000   0.00000   0.00000   0.00000   0.00000   0.00000   0.00000   0.00000   0.00000   0.00000   0.00000   0.00000   0.00000   0.00000   0.00000   0.00000   0.00000   0.00000   0.00000   0.00000   0.00000   0.00000   0.00000   0.00000   0.00000   0.00000   0.00000   0.00000   0.00000   0.00000   0.00000   0.00000   0.00000   0.00000   0.00000   0.00000   0.00000   0.00000   0.00000   0.00000   0.00000   0.00000   0.00000   0.00000   0.00000   0.00000   0.00000   0.00000   0.00000   0.00000   0.00000   0.00000   0.00000   0.00000   0.00000   0.00000   0.00000   0.00000   0.00000   0.00000   0.00000   0.00000   0.00000   0.00000   0.00000   0.00000   0.00000   0.00000   0.00000   0.00000   0.00000   0.00000   0.00000   0.00000   0.00000   0.00000   0.00000   0.00000   0.00000   0.00000   0.00000   0.00000   0.00000   0.00000   0.00000   0.00000   0.00000   0.00000   0.00000   0.00000   0.00000   0.00000   0.00000   0.00000   0.00000   0.00000   0.00000   0.00000   0.00000   0.00000   0.00000   0.00000   0.00000   0.00000   0.00000   0.00000   0.00000   0.00000   0.00000   0.00000   0.00000   0.00000   0.00000   0.00000   0.00000   0.00000   0.00000   0.00000   0.00000   0.00000   0.00000   0.00000   0.00000   0.00000   0.00000   0.00000   0.00000   0.00000   0.00000   0.00000   0.00000   0.00000   0.00000   0.00000   0.00000   0.00000   0.00000   0.00000   0.00000   0.00000   0.00000   0.00000   0.00000   0.00000   0.00000   0.00000   0.00000   0.00000   0.00000   0.00000   0.00000   0.00000   0.00000   0.00000   0.00000   0.00000   0.00000   0.00000   0.00000   0.00000   0.00000   0.00000   0.00000   0.00000   0.00000   0.00000   0.00000   0.00000   0.00000   0.00000   0.00000   0.00000   0.00000   0.00000   0.00000   0.00000   0.00000   0.00000   0.00000   0.00000   0.00000   0.00000   0.00000   0.00000   0.00000   0.00000   0.00000   0.00000   0.00000   0.00000   0.00000   0.00000   0.00000   0.00000   0.00000   0.00000   0.00000   0.00000   0.00000   0.00000   0.00000   0.00000   0.00000   0.00000   0.00000   0.00000   0.00000   0.00000   0.00000   0.00000   0.00000   0.00000   0.00000   0.00000   0.00000   0.00000   0.00000   0.00000   0.00000   0.00000   0.00000   0.00000   0.00000   0.00000   0.00000   0.00000   0.00000   0.00000   0.00000   0.00000   0.00000   0.00000   0.00000   0.00000   0.00000   0.00000   0.00000   0.00000   0.00000   0.00000   0.00000   0.00000   0.00000   0.00000   0.00000   0.00000   0.00000   0.00000   0.00000   0.00000   0.00000   0.00000   0.00000   0.00000   0.00000   0.00000   0.00000   0.00000   0.00000   0.00000   0.00000   0.00000   0.00000   0.00000   0.00000   0.00000   0.00000   0.00000   0.00000   0.00000   0.00000   0.00000   0.00000   0.00000   0.00000   0.00000   0.00000   0.00000   0.00000   0.00000   0.00000   0.00000   0.00000   0.00000   0.00000   0.00000   0.00000   0.00000   0.00000   0.00000   0.00000   0.00000   0.00000   0.00000   0.00000   0.00000   0.00000   0.00000   0.00000   0.00000   0.00000   0.00000   0.00000   0.00000   0.00000   0.00000   0.00000   0.00000   0.00000   0.00000   0.00000   0.00000   0.00000   0.00000   0.00000   0.00000   0.00000   0.00000   0.00000   0.00000   0.00000   0.00000   0.00000   0.00000   0.00000   0.00000   0.00000   0.00000   0.00000   0.00000   0.00000   0.00000   0.00000   0.00000   0.00000   0.00000   0.00000   0.00000   0.00000   0.00000   0.00000   0.00000   0.00000   0.00000   0.00000   0.00000   0.00000   0.00000   0.00000   0.00000   0.00000   0.00000   0.00000   0.00000   0.00000   0.00000   0.00000   0.00000   0.00000   0.00000   0.00000   0.00000   0.00000   0.00000   0.00000   0.00000   0.00000   0.00000   0.00000   0.00000   0.00000   0.00000   0.00000   0.00000   0.00000   0.00000   0.00000   0.00000   0.00000   0.00000   0.00000   0.00000   0.00000   0.00000   0.00000   0.00000   0.00000   0.00000   0.00000   0.00000   0.00000   0.00000   0.00000   0.00000   0.00000   0.00000   0.00000   0.00000   0.00000   0.00000   0.00000   0.00000   0.00000   0.00000   0.00000   0.00000   0.00000   0.00000   0.00000   0.00000   0.00000   0.00000   0.00000   0.00000   0.00000   0.00000   0.00000   0.00000   0.00000   0.00000   0.00000   0.00000   0.00000   0.00000   0.00000
-15.98196   0.00000   0.00000   0.00000   0.00000   0.00000   0.00000   0.00000   0.00000   0.00000   0.00000   0.00000   0.00000   0.00000   0.00000   0.00000   0.00000   0.00000   0.00000   0.00000   0.00000   0.00000   0.00000   0.00000   0.00000   0.00000   0.00000   0.00000   0.00000   0.00000   0.00000   0.00000   0.00000   0.00000   0.00000   0.00000   0.00000   0.00000   0.00000   0.00000   0.00000   0.00000   0.00000   0.00000   0.00000   0.00000   0.00000   0.00000   0.00000   0.00000   0.00000   0.00000   0.00000   0.00000   0.00000   0.00000   0.00000   0.00000   0.00000   0.00000   0.00000   0.00000   0.00000   0.00000   0.00000   0.00000   0.00000   0.00000   0.00000   0.00000   0.00000   0.00000   0.00000   0.00000   0.00000   0.00000   0.00000   0.00000   0.00000   0.00000   0.00000   0.00000   0.00000   0.00000   0.00000   0.00000   0.00000   0.00000   0.00000   0.00000   0.00000   0.00000   0.00000   0.00000   0.00000   0.00000   0.00000   0.00000   0.00000   0.00000   0.00000   0.00000   0.00000   0.00000   0.00000   0.00000   0.00000   0.00000   0.00000   0.00000   0.00000   0.00000   0.00000   0.00000   0.00000   0.00000   0.00000   0.00000   0.00000   0.00000   0.00000   0.00000   0.00000   0.00000   0.00000   0.00000   0.00000   0.00000   0.00000   0.00000   0.00000   0.00000   0.00000   0.00000   0.00000   0.00000   0.00000   0.00000   0.00000   0.00000   0.00000   0.00000   0.00000   0.00000   0.00000   0.00000   0.00000   0.00000   0.00000   0.00000   0.00000   0.00000   0.00000   0.00000   0.00000   0.00000   0.00000   0.00000   0.00000   0.00000   0.00000   0.00000   0.00000   0.00000   0.00000   0.00000   0.00000   0.00000   0.00000   0.00000   0.00000   0.00000   0.00000   0.00000   0.00000   0.00000   0.00000   0.00000   0.00000   0.00000   0.00000   0.00000   0.00000   0.00000   0.00000   0.00000   0.00000   0.00000   0.00000   0.00000   0.00000   0.00000   0.00000   0.00000   0.00000   0.00000   0.00000   0.00000   0.00000   0.00000   0.00000   0.00000   0.00000   0.00000   0.00000   0.00000   0.00000   0.00000   0.00000   0.00000   0.00000   0.00000   0.00000   0.00000   0.00000   0.00000   0.00000   0.00000   0.00000   0.00000   0.00000   0.00000   0.00000   0.00000   0.00000   0.00000   0.00000   0.00000   0.00000   0.00000   0.00000   0.00000   0.00000   0.00000   0.00000   0.00000   0.00000   0.00000   0.00000   0.00000   0.00000   0.00000   0.00000   0.00000   0.00000   0.00000   0.00000   0.00000   0.00000   0.00000   0.00000   0.00000   0.00000   0.00000   0.00000   0.00000   0.00000   0.00000   0.00000   0.00000   0.00000   0.00000   0.00000   0.00000   0.00000   0.00000   0.00000   0.00000   0.00000   0.00000   0.00000   0.00000   0.00000   0.00000   0.00000   0.00000   0.00000   0.00000   0.00000   0.00000   0.00000   0.00000   0.00000   0.00000   0.00000   0.00000   0.00000   0.00000   0.00000   0.00000   0.00000   0.00000   0.00000   0.00000   0.00000   0.00000   0.00000   0.00000   0.00000   0.00000   0.00000   0.00000   0.00000   0.00000   0.00000   0.00000   0.00000   0.00000   0.00000   0.00000   0.00000   0.00000   0.00000   0.00000   0.00000   0.00000   0.00000   0.00000   0.00000   0.00000   0.00000   0.00000   0.00000   0.00000   0.00000   0.00000   0.00000   0.00000   0.00000   0.00000   0.00000   0.00000   0.00000   0.00000   0.00000   0.00000   0.00000   0.00000   0.00000   0.00000   0.00000   0.00000   0.00000   0.00000   0.00000   0.00000   0.00000   0.00000   0.00000   0.00000   0.00000   0.00000   0.00000   0.00000   0.00000   0.00000   0.00000   0.00000   0.00000   0.00000   0.00000   0.00000   0.00000   0.00000   0.00000   0.00000   0.00000   0.00000   0.00000   0.00000   0.00000   0.00000   0.00000   0.00000   0.00000   0.00000   0.00000   0.00000   0.00000   0.00000   0.00000   0.00000   0.00000   0.00000   0.00000   0.00000   0.00000   0.00000   0.00000   0.00000   0.00000   0.00000   0.00000   0.00000   0.00000   0.00000   0.00000   0.00000   0.00000   0.00000   0.00000   0.00000   0.00000   0.00000   0.00000   0.00000   0.00000   0.00000   0.00000   0.00000   0.00000   0.00000   0.00000   0.00000   0.00000   0.00000   0.00000   0.00000   0.00000   0.00000   0.00000   0.00000   0.00000   0.00000   0.00000   0.00000   0.00000   0.00000   0.00000   0.00000   0.00000   0.00000   0.00000   0.00000   0.00000   0.00000   0.00000   0.00000   0.00000   0.00000   0.00000   0.00000   0.00000   0.00000   0.00000   0.00000   0.00000   0.00000   0.00000   0.00000   0.00000   0.00000   0.00000   0.00000   0.00000   0.00000   0.00000   0.00000   0.00000   0.00000   0.00000   0.00000   0.00000   0.00000   0.00000   0.00000   0.00000   0.00000   0.00000   0.00000   0.00000   0.00000   0.00000   0.00000   0.00000   0.00000   0.00000   0.00000   0.00000   0.00000   0.00000   0.00000   0.00000   0.00000   0.00000   0.00000   0.00000   0.00000   0.00000   0.00000   0.00000   0.00000   0.00000   0.00000   0.00000   0.00000   0.00000   0.00000   0.00000   0.00000   0.00000   0.00000   0.00000   0.00000   0.00000   0.00000   0.00000   0.00000   0.00000   0.00000   0.00000   0.00000   0.00000   0.00000   0.00000   0.00000   0.00000   0.00000   0.00000   0.00000   0.00000   0.00000   0.00000   0.00000   0.00000   0.00000   0.00000   0.00000   0.00000   0.00000   0.00000   0.00000   0.00000   0.00000   0.00000   0.00000   0.00000   0.00000   0.00000   0.00000   0.00000   0.00000   0.00000   0.00000   0.00000   0.00000   0.00000   0.00000   0.00000   0.00000   0.00000   0.00000   0.00000   0.00000   0.00000   0.00000   0.00000   0.00000   0.00000   0.00000   0.00000   0.00000   0.00000   0.00000   0.00000   0.00000   0.00000   0.00000   0.00000   0.00000   0.00000   0.00000   0.00000   0.00000   0.00000   0.00000   0.00000   0.00000   0.00000   0.00000   0.00000   0.00000   0.00000   0.00000   0.00000   0.00000   0.00000   0.00000   0.00000   0.00000   0.00000   0.00000   0.00000   0.00000   0.00000   0.00000   0.00000   0.00000   0.00000   0.00000   0.00000   0.00000   0.00000   0.00000   0.00000   0.00000   0.00000   0.00000   0.00000   0.00000   0.00000   0.00000   0.00000   0.00000   0.00000   0.00000   0.00000   0.00000   0.00000   0.00000   0.00000   0.00000   0.00000   0.00000   0.00000   0.00000   0.00000   0.00000   0.00000   0.00000   0.00000   0.00000   0.00000   0.00000   0.00000   0.00000   0.00000   0.00000   0.00000   0.00000   0.00000   0.00000   0.00000   0.00000   0.00000   0.00000   0.00000   0.00000   0.00000   0.00000   0.00000   0.00000   0.00000   0.00000   0.00000   0.00000   0.00000   0.00000   0.00000   0.00000   0.00000   0.00000   0.00000   0.00000   0.00000   0.00000   0.00000   0.00000   0.00000   0.00000   0.00000   0.00000   0.00000   0.00000   0.00000   0.00000   0.00000   0.00000   0.00000   0.00000   0.00000   0.00000   0.00000   0.00000   0.00000   0.00000   0.00000   0.00000   0.00000   0.00000   0.00000   0.00000   0.00000   0.00000   0.00000   0.00000   0.00000   0.00000   0.00000   0.00000   0.00000   0.00000   0.00000   0.00000   0.00000   0.00000   0.00000