  23   23    1    1
  1.9408944e+02   6.0425884e-10   6.0425588e-10   6.1378571e-10   5.0000000e-16
            1.000000e-04
  CAR
 DOS and projected DOS file by LOBSTER. Energy is shifted such that the Fermi level lies at 0 eV. 
     17.22381028      -7.82628992   501       8.20577421       1.00000000
-16.03206   0.00000   0.00000
-15.98196   0.00000   0.00000
-15.93186   0.00000   0.00000
-15.88176   0.00000   0.00000
-15.83166   0.00000   0.00000
-15.78156   0.00000   0.00000
-15.73146   0.00000   0.00000
-15.68136   0.00000   0.00000
-15.63126   0.00000   0.00000
-15.58116   0.00000   0.00000
-15.53106   0.00000   0.00000
-15.48096   0.00000   0.00000
-15.43086   0.00000   0.00000
-15.38076   0.00000   0.00000
-15.33066   0.00000   0.00000
-15.28056   0.00000   0.00000
-15.23046   0.00000   0.00000
-15.18036   0.00000   0.00000
-15.13026   0.00000   0.00000
-15.08016   0.00000   0.00000
-15.03006   0.00000   0.00000
-14.97996   0.00000   0.00000
-14.92986   0.00000   0.00000
-14.87976   0.00000   0.00000
-14.82966   0.00000   0.00000
-14.77956   0.00000   0.00000
-14.72946   0.00000   0.00000
-14.67936   0.00000   0.00000
-14.62926   0.00000   0.00000
-14.57916   0.00000   0.00000
-14.52906   0.00000   0.00000
-14.47896   0.00000   0.00000
-14.42886   0.00000   0.00000
-14.37876   0.00000   0.00000
-14.32866   0.00000   0.00000
-14.27856   0.02819   0.00141
-14.22846   0.31298   0.01709
-14.17836   0.45208   0.03974
-14.12826   0.59626   0.06961
-14.07816   0.72788   0.10608
-14.02806   0.78666   0.14549
-13.97796   0.87504   0.18933
-13.92786   0.96883   0.23787
-13.87776   1.06494   0.29123
-13.82766   1.12870   0.34777
-13.77756   1.19437   0.40761
-13.72745   1.26163   0.47082
-13.67735   1.33980   0.53794
-13.62725   1.42459   0.60932
-13.57715   1.63165   0.69106
-13.52705   1.68460   0.77546
-13.47695   1.73269   0.86227
-13.42685   1.78783   0.95184
-13.37675   1.90552   1.04731
-13.32665   1.96658   1.14583
-13.27655   1.94267   1.24316
-13.22645   2.06575   1.34665
-13.17635   2.15371   1.45456
-13.12625   2.01672   1.55559
-13.07615   1.92550   1.65206
-13.02605   1.80880   1.74268
-12.97595   1.76244   1.83098
-12.92585   1.75659   1.91899
-12.87575   1.83532   2.01094
-12.82565   2.11994   2.11715
-12.77555   2.47295   2.24104
-12.72545   2.77781   2.38021
-12.67535   3.02908   2.53197
-12.62525   2.91826   2.67817
-12.57515   3.25872   2.84144
-12.52505   3.54282   3.01893
-12.47495   3.29710   3.18412
-12.42485   3.51649   3.36029
-12.37475   2.40380   3.48072
-12.32465   2.07356   3.58461
-12.27455   2.30630   3.70016
-12.22445   2.65930   3.83339
-12.17435   3.93950   4.03076
-12.12425   3.93531   4.22792
-12.07415   4.92423   4.47462
-12.02405   5.21415   4.73585
-11.97395   4.57349   4.96499
-11.92385   4.61987   5.19644
-11.87375   4.89907   5.44189
-11.82365   4.22552   5.65359
-11.77355   4.15704   5.86185
-11.72345   4.25007   6.07478
-11.67335   4.18575   6.28449
-11.62325   4.07399   6.48860
-11.57315   4.25821   6.70194
-11.52305   4.55204   6.92999
-11.47295   4.81434   7.17119
-11.42285   4.82264   7.41281
-11.37275   4.88262   7.65743
-11.32265   4.90498   7.90317
-11.27255   5.10718   8.15904
-11.22244   5.43291   8.43123
-11.17234   5.68137   8.71587
-11.12224   5.91311   9.01212
-11.07214   6.08679   9.31707
-11.02204   6.46411   9.64092
-10.97194   6.84645   9.98393
-10.92184   8.38256  10.40389
-10.87174   8.32923  10.82119
-10.82164   6.35340  11.13950
-10.77154   4.83584  11.38177
-10.72144   3.63608  11.56394
-10.67134   3.06112  11.71730
-10.62124   2.88688  11.86194
-10.57114   2.87454  12.00595
-10.52104   3.04614  12.15857
-10.47094   3.18329  12.31805
-10.42084   3.43878  12.49033
-10.37074   4.17347  12.69942
-10.32064   5.54695  12.97733
-10.27054   7.04216  13.33014
-10.22044   7.81766  13.72181
-10.17034   6.93571  14.06929
-10.12024   6.25106  14.38247
-10.07014   5.17012  14.64149
-10.02004   4.40882  14.86237
 -9.96994   3.86248  15.05589
 -9.91984   2.74932  15.19363
 -9.86974   2.51169  15.31946
 -9.81964   2.48920  15.44417
 -9.76954   2.40386  15.56461
 -9.71944   2.61237  15.69549
 -9.66934   2.68033  15.82977
 -9.61924   2.99188  15.97967
 -9.56914   3.54512  16.15728
 -9.51904   2.25868  16.27044
 -9.46894   1.95080  16.36817
 -9.41884   1.92456  16.46459
 -9.36874   2.01508  16.56555
 -9.31864   1.86263  16.65887
 -9.26854   1.98501  16.75832
 -9.21844   2.10888  16.86397
 -9.16834   2.33018  16.98071
 -9.11824   2.92162  17.12709
 -9.06814   3.82513  17.31873
 -9.01804   5.30636  17.58458
 -8.96794   4.67403  17.81875
 -8.91784   5.54157  18.09638
 -8.86774   5.18304  18.35605
 -8.81764   5.02283  18.60770
 -8.76754   5.02534  18.85947
 -8.71743   5.04886  19.11242
 -8.66733   5.13533  19.36970
 -8.61723   5.20393  19.63042
 -8.56713   5.42754  19.90234
 -8.51703   5.60256  20.18303
 -8.46693   5.32283  20.44970
 -8.41683   4.77711  20.68904
 -8.36673   4.57846  20.91842
 -8.31663   4.79346  21.15857
 -8.26653   3.92135  21.35503
 -8.21643   3.66317  21.53856
 -8.16633   3.46060  21.71193
 -8.11623   3.60483  21.89254
 -8.06613   3.96011  22.09094
 -8.01603   4.19397  22.30106
 -7.96593   4.44907  22.52396
 -7.91583   4.52770  22.75080
 -7.86573   4.59591  22.98105
 -7.81563   4.74813  23.21893
 -7.76553   5.53101  23.49604
 -7.71543   6.35563  23.81446
 -7.66533   6.72255  24.15126
 -7.61523   6.21291  24.46253
 -7.56513   5.44712  24.73543
 -7.51503   4.92548  24.98219
 -7.46493   4.59515  25.21241
 -7.41483   4.47851  25.43679
 -7.36473   4.65144  25.66983
 -7.31463   5.08286  25.92448
 -7.26453   4.94521  26.17223
 -7.21443   4.71089  26.40825
 -7.16433   4.88225  26.65285
 -7.11423   5.34674  26.92072
 -7.06413   6.14129  27.22840
 -7.01403   5.67785  27.51287
 -6.96393   5.42512  27.78467
 -6.91383   5.39377  28.05489
 -6.86373   5.62490  28.33670
 -6.81363   5.47308  28.61091
 -6.76353   5.22700  28.87278
 -6.71343   5.21538  29.13407
 -6.66333   6.27598  29.44850
 -6.61323   6.06642  29.75243
 -6.56313   6.75759  30.09098
 -6.51303   7.28747  30.45609
 -6.46293   7.15955  30.81478
 -6.41283   4.61728  31.04611
 -6.36273   4.00401  31.24671
 -6.31263   5.39570  31.51704
 -6.26253   6.19310  31.82731
 -6.21242   6.39838  32.14787
 -6.16232   7.14695  32.50594
 -6.11222   8.59916  32.93676
 -6.06212  10.60009  33.46782
 -6.01202  10.97988  34.01792
 -5.96192  11.45822  34.59198
 -5.91182  13.11393  35.24899
 -5.86172  11.56647  35.82847
 -5.81162  11.94177  36.42675
 -5.76152  10.40208  36.94790
 -5.71142   8.18715  37.35808
 -5.66132   7.82671  37.75020
 -5.61122   8.31664  38.16686
 -5.56112   9.99845  38.66779
 -5.51102   9.55999  39.14674
 -5.46092  10.27810  39.66168
 -5.41082  10.43442  40.18445
 -5.36072  10.24656  40.69780
 -5.31062   8.98744  41.14807
 -5.26052   8.73308  41.58560
 -5.21042   9.22996  42.04802
 -5.16032   9.74583  42.53629
 -5.11022   9.01300  42.98785
 -5.06012   9.09222  43.44337
 -5.01002   9.54157  43.92140
 -4.95992   9.12021  44.37833
 -4.90982   9.11407  44.83494
 -4.85972  10.19083  45.34551
 -4.80962  12.52530  45.97303
 -4.75952  12.91443  46.62004
 -4.70942  12.62260  47.25244
 -4.65932  12.16794  47.86205
 -4.60922  12.33115  48.47985
 -4.55912  12.33357  49.09776
 -4.50902  11.55574  49.67670
 -4.45892  11.77997  50.26688
 -4.40882  12.55885  50.89608
 -4.35872  12.38371  51.51651
 -4.30862  12.79828  52.15771
 -4.25852  13.83429  52.85081
 -4.20842  15.60807  53.63278
 -4.15832  16.52502  54.46068
 -4.10822  17.00840  55.31281
 -4.05812  18.11125  56.22018
 -4.00802  16.20519  57.03207
 -3.95792  15.02922  57.78503
 -3.90782  12.64242  58.41842
 -3.85772  11.68164  59.00367
 -3.80762  13.05083  59.65752
 -3.75752  14.32975  60.37545
 -3.70741  13.35026  61.04430
 -3.65731  13.81450  61.73641
 -3.60721  13.38633  62.40706
 -3.55711  11.08964  62.96266
 -3.50701   7.74416  63.35064
 -3.45691   7.78732  63.74079
 -3.40681   8.30574  64.15691
 -3.35671   7.91768  64.55358
 -3.30661   8.55667  64.98228
 -3.25651  11.54022  65.56044
 -3.20641  10.02493  66.06269
 -3.15631  10.69682  66.59861
 -3.10621   9.17150  67.05810
 -3.05611   8.91514  67.50475
 -3.00601   8.93322  67.95231
 -2.95591   8.67240  68.38680
 -2.90581   8.55518  68.81541
 -2.85571   8.53055  69.24279
 -2.80561   9.29905  69.70868
 -2.75551   9.10748  70.16497
 -2.70541   7.84525  70.55801
 -2.65531   6.76345  70.89686
 -2.60521   7.61047  71.27815
 -2.55511   8.52836  71.70542
 -2.50501   8.85588  72.14910
 -2.45491   7.43303  72.52150
 -2.40481   8.55784  72.95025
 -2.35471  11.24978  73.51387
 -2.30461   9.06952  73.96825
 -2.25451   4.91398  74.21444
 -2.20441   4.13177  74.42144
 -2.15431   4.31143  74.63745
 -2.10421   4.90657  74.88327
 -2.05411   4.75603  75.12155
 -2.00401   4.34710  75.33934
 -1.95391   3.59450  75.51942
 -1.90381   3.36137  75.68783
 -1.85371   3.25402  75.85085
 -1.80361   2.98596  76.00045
 -1.75351   2.71878  76.13666
 -1.70341   2.52917  76.26337
 -1.65331   2.82788  76.40505
 -1.60321   4.43283  76.62714
 -1.55311   6.03579  76.92953
 -1.50301   5.85641  77.22294
 -1.45291   6.18431  77.53277
 -1.40281   4.16823  77.74160
 -1.35271   4.11194  77.94761
 -1.30261   4.71266  78.18372
 -1.25251   6.52788  78.51077
 -1.20240   7.55920  78.88948
 -1.15230   6.06421  79.19330
 -1.10220   4.81379  79.43447
 -1.05210   4.41359  79.65560
 -1.00200   3.78834  79.84539
 -0.95190   3.39456  80.01546
 -0.90180   3.26363  80.17897
 -0.85170   3.62729  80.36070
 -0.80160   4.81943  80.60215
 -0.75150   6.32045  80.91881
 -0.70140   7.28676  81.28387
 -0.65130   8.21933  81.69566
 -0.60120   6.50569  82.02160
 -0.55110   4.41173  82.24263
 -0.50100   3.98697  82.44238
 -0.45090   5.75690  82.73080
 -0.40080   7.78267  83.12071
 -0.35070   7.74428  83.50870
 -0.30060   6.89592  83.85419
 -0.25050   6.48910  84.17930
 -0.20040   9.01395  84.63090
 -0.15030   6.96892  84.98004
 -0.10020   6.15993  85.28865
 -0.05010   6.65237  85.62194
 -0.00000   7.51680  85.99853
  0.05010   7.72198  86.38541
  0.10020   7.66537  86.76944
  0.15030   8.30180  87.18536
  0.20040   9.90944  87.68183
  0.25050  10.99246  88.23255
  0.30060  10.57905  88.76257
  0.35070  12.30334  89.37896
  0.40080  10.20885  89.89043
  0.45090  10.36197  90.40957
  0.50100  11.96827  91.00918
  0.55110  11.24125  91.57237
  0.60120  11.79182  92.16314
  0.65130  11.73512  92.75107
  0.70140  11.93899  93.34922
  0.75150  13.73581  94.03739
  0.80160  17.50133  94.91421
  0.85170  19.90829  95.91162
  0.90180  16.87451  96.75703
  0.95190  20.58819  97.78850
  1.00200  23.46559  98.96413
  1.05210  24.15521 100.17432
  1.10220  20.46628 101.19968
  1.15230  16.24719 102.01367
  1.20240  16.65407 102.84804
  1.25251  17.89437 103.74455
  1.30261  22.19379 104.85646
  1.35271  20.92468 105.90480
  1.40281  19.39944 106.87671
  1.45291  16.71141 107.71396
  1.50301  14.83862 108.45737
  1.55311  14.06221 109.16189
  1.60321  12.23626 109.77493
  1.65331  10.36858 110.29440
  1.70341  10.04948 110.79788
  1.75351  10.15612 111.30671
  1.80361  10.68717 111.84213
  1.85371  10.83843 112.38514
  1.90381  10.82157 112.92731
  1.95391  12.56726 113.55693
  2.00401  13.94585 114.25562
  2.05411  10.11772 114.76252
  2.10421   8.65887 115.19633
  2.15431   8.95008 115.64473
  2.20441  10.64098 116.17784
  2.25451  10.87955 116.72291
  2.30461  10.10996 117.22942
  2.35471  12.64047 117.86271
  2.40481   9.92159 118.35979
  2.45491   7.98143 118.75966
  2.50501  10.33006 119.27720
  2.55511  11.16412 119.83652
  2.60521  10.90685 120.38296
  2.65531  11.03895 120.93601
  2.70541   8.47723 121.36072
  2.75551   5.48150 121.63534
  2.80561   3.82716 121.82709
  2.85571   4.00258 122.02762
  2.90581   4.85831 122.27102
  2.95591   5.91704 122.56746
  3.00601   6.40684 122.88845
  3.05611   6.16001 123.19707
  3.10621   6.48623 123.52203
  3.15631   8.46355 123.94605
  3.20641  13.19973 124.60736
  3.25651   9.67989 125.09233
  3.30661   7.38897 125.46251
  3.35671   7.91248 125.85893
  3.40681   9.94852 126.35735
  3.45691   9.60326 126.83848
  3.50701   8.18798 127.24870
  3.55711   7.54599 127.62675
  3.60721   7.57611 128.00632
  3.65731   4.81570 128.24759
  3.70741   4.12999 128.45450
  3.75752   4.57208 128.68356
  3.80762   5.15790 128.94197
  3.85772   5.77453 129.23128
  3.90782   5.90339 129.52704
  3.95792   5.76726 129.81598
  4.00802   4.89916 130.06143
  4.05812   4.89285 130.30656
  4.10822   5.47478 130.58085
  4.15832   5.83402 130.87314
  4.20842   5.97180 131.17232
  4.25852   6.81121 131.51357
  4.30862   7.87226 131.90797
  4.35872   8.20341 132.31896
  4.40882   7.85048 132.71227
  4.45892   7.69054 133.09757
  4.50902   7.59662 133.47816
  4.55912   7.21811 133.83979
  4.60922   6.85910 134.18343
  4.65932   7.35953 134.55215
  4.70942   6.90010 134.89784
  4.75952   5.79863 135.18835
  4.80962   5.30548 135.45416
  4.85972   5.45652 135.72753
  4.90982   5.33670 135.99490
  4.95992   5.57869 136.27440
  5.01002   5.70476 136.56021
  5.06012   5.64200 136.84287
  5.11022   5.81583 137.13425
  5.16032   5.97410 137.43355
  5.21042   5.75058 137.72165
  5.26052   5.71874 138.00816
  5.31062   5.91983 138.30475
  5.36072   6.25751 138.61825
  5.41082   6.03028 138.92037
  5.46092   6.17702 139.22984
  5.51102   6.49601 139.55529
  5.56112   6.51190 139.88154
  5.61122   6.37277 140.20082
  5.66132   6.19949 140.51141
  5.71142   6.08612 140.81633
  5.76152   5.85260 141.10954
  5.81162   5.65366 141.39279
  5.86172   5.92185 141.68948
  5.91182   6.23166 142.00169
  5.96192   6.59289 142.33199
  6.01202   6.74716 142.67003
  6.06212   6.91214 143.01633
  6.11222   6.89717 143.36188
  6.16232   6.93579 143.70936
  6.21242   7.55706 144.08797
  6.26253   7.79594 144.47855
  6.31263   7.88728 144.87370
  6.36273   8.48014 145.29856
  6.41283   8.32939 145.71586
  6.46293   8.61690 146.14757
  6.51303   9.78825 146.63796
  6.56313   9.60263 147.11906
  6.61323   9.34357 147.58717
  6.66333   9.62687 148.06948
  6.71343   9.65564 148.55323
  6.76353   8.73997 148.99110
  6.81363   7.75454 149.37961
  6.86373   7.55850 149.75829
  6.91383   7.75414 150.14678
  6.96393   7.73355 150.53423
  7.01403   7.48494 150.90922
  7.06413   7.37374 151.27865
  7.11423   7.64969 151.66190
  7.16433   7.59388 152.04236
  7.21443   8.41256 152.46383
  7.26453   9.28667 152.92909
  7.31463   8.45492 153.35268
  7.36473   7.00034 153.70340
  7.41483   6.00787 154.00440
  7.46493   7.26658 154.36846
  7.51503   7.83530 154.76101
  7.56513   8.33336 155.17851
  7.61523   8.50601 155.60466
  7.66533   8.32141 156.02157
  7.71543   9.13559 156.47926
  7.76553   9.71435 156.96595
  7.81563  10.21014 157.47748
  7.86573  11.70230 158.06377
  7.91583  11.43879 158.63685
  7.96593   9.40626 159.10811
  8.01603   8.57353 159.53765
  8.06613   8.36312 159.95664
  8.11623   8.67278 160.39115
  8.16633   9.92658 160.88847
  8.21643   9.30538 161.35467
  8.26653  10.98457 161.90500
  8.31663  10.62367 162.43725
  8.36673   9.69910 162.92318
  8.41683   9.73085 163.41069
  8.46693   9.18704 163.87097
  8.51703   8.24193 164.28389
  8.56713   7.95048 164.68221
  8.61723   7.81593 165.07379
  8.66733   8.15199 165.48221
  8.71743   8.09102 165.88757
  8.76754   8.63137 166.32000
  8.81764   9.22347 166.78210
  8.86774   9.08674 167.23735
  8.91784   9.62165 167.71939
  8.96794   9.43558 168.19212
  9.01804   9.02306 168.64417
      9.01803607     -16.03206413   501       8.20577421       1.00000000; Z= 42; 5s 4p_y 4p_z 4p_x 4d_xy 4d_yz 4d_z^2 4d_xz 4d_x^2-y^2 
-16.03206   0.00000   0.00000   0.00000   0.00000   0.00000   0.00000   0.00000   0.00000   0.00000
-15.98196   0.00000   0.00000   0.00000   0.00000   0.00000   0.00000   0.00000   0.00000   0.00000
-15.93186   0.00000   0.00000   0.00000   0.00000   0.00000   0.00000   0.00000   0.00000   0.00000
-15.88176   0.00000   0.00000   0.00000   0.00000   0.00000   0.00000   0.00000   0.00000   0.00000
-15.83166   0.00000   0.00000   0.00000   0.00000   0.00000   0.00000   0.00000   0.00000   0.00000
-15.78156   0.00000   0.00000   0.00000   0.00000   0.00000   0.00000   0.00000   0.00000   0.00000
-15.73146   0.00000   0.00000   0.00000   0.00000   0.00000   0.00000   0.00000   0.00000   0.00000
-15.68136   0.00000   0.00000   0.00000   0.00000   0.00000   0.00000   0.00000   0.00000   0.00000
-15.63126   0.00000   0.00000   0.00000   0.00000   0.00000   0.00000   0.00000   0.00000   0.00000
-15.58116   0.00000   0.00000   0.00000   0.00000   0.00000   0.00000   0.00000   0.00000   0.00000
-15.53106   0.00000   0.00000   0.00000   0.00000   0.00000   0.00000   0.00000   0.00000   0.00000
-15.48096   0.00000   0.00000   0.00000   0.00000   0.00000   0.00000   0.00000   0.00000   0.00000
-15.43086   0.00000   0.00000   0.00000   0.00000   0.00000   0.00000   0.00000   0.00000   0.00000
-15.38076   0.00000   0.00000   0.00000   0.00000   0.00000   0.00000   0.00000   0.00000   0.00000
-15.33066   0.00000   0.00000   0.00000   0.00000   0.00000   0.00000   0.00000   0.00000   0.00000
-15.28056   0.00000   0.00000   0.00000   0.00000   0.00000   0.00000   0.00000   0.00000   0.00000
-15.23046   0.00000   0.00000   0.00000   0.00000   0.00000   0.00000   0.00000   0.00000   0.00000
-15.18036   0.00000   0.00000   0.00000   0.00000   0.00000   0.00000   0.00000   0.00000   0.00000
-15.13026   0.00000   0.00000   0.00000   0.00000   0.00000   0.00000   0.00000   0.00000   0.00000
-15.08016   0.00000   0.00000   0.00000   0.00000   0.00000   0.00000   0.00000   0.00000   0.00000
-15.03006   0.00000   0.00000   0.00000   0.00000   0.00000   0.00000   0.00000   0.00000   0.00000
-14.97996   0.00000   0.00000   0.00000   0.00000   0.00000   0.00000   0.00000   0.00000   0.00000
-14.92986   0.00000   0.00000   0.00000   0.00000   0.00000   0.00000   0.00000   0.00000   0.00000
-14.87976   0.00000   0.00000   0.00000   0.00000   0.00000   0.00000   0.00000   0.00000   0.00000
-14.82966   0.00000   0.00000   0.00000   0.00000   0.00000   0.00000   0.00000   0.00000   0.00000
-14.77956   0.00000   0.00000   0.00000   0.00000   0.00000   0.00000   0.00000   0.00000   0.00000
-14.72946   0.00000   0.00000   0.00000   0.00000   0.00000   0.00000   0.00000   0.00000   0.00000
-14.67936   0.00000   0.00000   0.00000   0.00000   0.00000   0.00000   0.00000   0.00000   0.00000
-14.62926   0.00000   0.00000   0.00000   0.00000   0.00000   0.00000   0.00000   0.00000   0.00000
-14.57916   0.00000   0.00000   0.00000   0.00000   0.00000   0.00000   0.00000   0.00000   0.00000
-14.52906   0.00000   0.00000   0.00000   0.00000   0.00000   0.00000   0.00000   0.00000   0.00000
-14.47896   0.00000   0.00000   0.00000   0.00000   0.00000   0.00000   0.00000   0.00000   0.00000
-14.42886   0.00000   0.00000   0.00000   0.00000   0.00000   0.00000   0.00000   0.00000   0.00000
-14.37876   0.00000   0.00000   0.00000   0.00000   0.00000   0.00000   0.00000   0.00000   0.00000
-14.32866   0.00000   0.00000   0.00000   0.00000   0.00000   0.00000   0.00000   0.00000   0.00000
-14.27856   0.00105   0.00000  -0.00000   0.00000  -0.00000   0.00000   0.00001   0.00000   0.00000
-14.22846   0.01133   0.00001  -0.00000   0.00001  -0.00000   0.00000   0.00010   0.00000   0.00000
-14.17836   0.01515   0.00002  -0.00000   0.00001   0.00000   0.00000   0.00015   0.00000   0.00000
-14.12826   0.01897   0.00004  -0.00001   0.00002   0.00000   0.00001   0.00020   0.00001   0.00000
-14.07816   0.02201   0.00005  -0.00001   0.00002   0.00001   0.00002   0.00025   0.00002   0.00001
-14.02806   0.02207   0.00007  -0.00001   0.00003   0.00002   0.00004   0.00028   0.00003   0.00002
-13.97796   0.02342   0.00008  -0.00001   0.00003   0.00003   0.00005   0.00032   0.00005   0.00002
-13.92786   0.02498   0.00010  -0.00002   0.00004   0.00004   0.00008   0.00036   0.00007   0.00003
-13.87776   0.02646   0.00011  -0.00002   0.00005   0.00005   0.00011   0.00040   0.00010   0.00005
-13.82766   0.02673   0.00012  -0.00003   0.00005   0.00007   0.00015   0.00043   0.00014   0.00006
-13.77756   0.02720   0.00013  -0.00004   0.00006   0.00009   0.00019   0.00046   0.00018   0.00008
-13.72745   0.02774   0.00015  -0.00005   0.00007   0.00011   0.00024   0.00049   0.00023   0.00010
-13.67735   0.02856   0.00016  -0.00006   0.00008   0.00013   0.00031   0.00052   0.00029   0.00012
-13.62725   0.02959   0.00017  -0.00007   0.00009   0.00015   0.00038   0.00055   0.00037   0.00014
-13.57715   0.03501   0.00018  -0.00010   0.00010   0.00018   0.00047   0.00056   0.00046   0.00016
-13.52705   0.03416   0.00019  -0.00011   0.00011   0.00022   0.00058   0.00058   0.00056   0.00020
-13.47695   0.03275   0.00020  -0.00012   0.00011   0.00026   0.00070   0.00061   0.00068   0.00023
-13.42685   0.03096   0.00020  -0.00013   0.00012   0.00031   0.00086   0.00063   0.00083   0.00026
-13.37675   0.02906   0.00022  -0.00013   0.00013   0.00036   0.00104   0.00067   0.00100   0.00031
-13.32665   0.02770   0.00022  -0.00014   0.00014   0.00040   0.00124   0.00068   0.00119   0.00034
-13.27655   0.02592   0.00021  -0.00014   0.00014   0.00042   0.00142   0.00066   0.00137   0.00036
-13.22645   0.02431   0.00022  -0.00016   0.00014   0.00055   0.00169   0.00068   0.00162   0.00044
-13.17635   0.02463   0.00016  -0.00028   0.00011   0.00060   0.00201   0.00061   0.00197   0.00047
-13.12625   0.02302   0.00014  -0.00031   0.00011   0.00058   0.00234   0.00052   0.00232   0.00044
-13.07615   0.02208   0.00012  -0.00036   0.00011   0.00055   0.00269   0.00043   0.00268   0.00041
-13.02605   0.02077   0.00011  -0.00039   0.00011   0.00051   0.00303   0.00037   0.00305   0.00037
-12.97595   0.01994   0.00010  -0.00043   0.00011   0.00053   0.00336   0.00038   0.00340   0.00037
-12.92585   0.01916   0.00009  -0.00048   0.00010   0.00060   0.00377   0.00043   0.00386   0.00038
-12.87575   0.02028   0.00008  -0.00051   0.00010   0.00081   0.00428   0.00066   0.00445   0.00055
-12.82565   0.02727   0.00007  -0.00054   0.00010   0.00118   0.00480   0.00120   0.00513   0.00109
-12.77555   0.03248   0.00006  -0.00059   0.00007   0.00165   0.00522   0.00162   0.00568   0.00171
-12.72545   0.03645   0.00004  -0.00064   0.00003   0.00218   0.00522   0.00196   0.00582   0.00235
-12.67535   0.04147   0.00005  -0.00070   0.00006   0.00244   0.00620   0.00219   0.00708   0.00276
-12.62525   0.04452   0.00003  -0.00077   0.00003   0.00256   0.00583   0.00226   0.00721   0.00281
-12.57515   0.05431   0.00003  -0.00089   0.00004   0.00288   0.00738   0.00252   0.00875   0.00318
-12.52505   0.06209   0.00003  -0.00098   0.00004   0.00313   0.00898   0.00266   0.01020   0.00350
-12.47495   0.05247   0.00001  -0.00097   0.00002   0.00300   0.00852   0.00230   0.00989   0.00329
-12.42485   0.05165   0.00001  -0.00102   0.00002   0.00310   0.01057   0.00223   0.01181   0.00338
-12.37475   0.02975  -0.00001  -0.00088   0.00001   0.00224   0.00721   0.00146   0.00693   0.00235
-12.32465   0.02255   0.00001  -0.00092   0.00004   0.00195   0.00416   0.00146   0.00531   0.00201
-12.27455   0.02366   0.00003  -0.00106   0.00007   0.00197   0.00510   0.00182   0.00647   0.00203
-12.22445   0.02639   0.00005  -0.00124   0.00009   0.00206   0.00648   0.00232   0.00817   0.00215
-12.17435   0.03937   0.00008  -0.00168   0.00015   0.00275   0.01139   0.00361   0.01515   0.00302
-12.12425   0.03914   0.00004  -0.00206   0.00006   0.00256   0.01168   0.00388   0.01461   0.00274
-12.07415   0.04756   0.00002  -0.00287   0.00002   0.00303   0.01482   0.00498   0.01907   0.00316
-12.02405   0.04630  -0.00001  -0.00339  -0.00000   0.00333   0.01632   0.00467   0.02134   0.00342
-11.97395   0.03799  -0.00003  -0.00296  -0.00002   0.00338   0.01545   0.00402   0.01996   0.00354
-11.92385   0.03668  -0.00006  -0.00271  -0.00007   0.00364   0.01703   0.00456   0.02438   0.00366
-11.87375   0.03257  -0.00011  -0.00318  -0.00009   0.00387   0.01985   0.00421   0.02807   0.00410
-11.82365   0.02570  -0.00011  -0.00305  -0.00010   0.00347   0.01847   0.00341   0.02238   0.00372
-11.77355   0.02388  -0.00012  -0.00305  -0.00012   0.00361   0.01942   0.00347   0.02157   0.00376
-11.72345   0.02332  -0.00013  -0.00309  -0.00013   0.00389   0.02091   0.00365   0.02261   0.00403
-11.67335   0.02324  -0.00016  -0.00298  -0.00015   0.00415   0.02134   0.00403   0.02128   0.00434
-11.62325   0.02289  -0.00018  -0.00281  -0.00018   0.00442   0.02213   0.00448   0.01951   0.00471
-11.57315   0.02439  -0.00022  -0.00290  -0.00023   0.00483   0.02380   0.00529   0.01922   0.00529
-11.52305   0.02467  -0.00023  -0.00344  -0.00023   0.00500   0.02891   0.00527   0.02290   0.00540
-11.47295   0.02329  -0.00025  -0.00389  -0.00024   0.00513   0.03467   0.00499   0.02753   0.00545
-11.42285   0.02301  -0.00026  -0.00424  -0.00024   0.00531   0.03506   0.00496   0.02693   0.00550
-11.37275   0.02282  -0.00029  -0.00459  -0.00026   0.00555   0.03575   0.00512   0.02656   0.00561
-11.32265   0.02176  -0.00031  -0.00477  -0.00028   0.00563   0.03775   0.00505   0.02736   0.00569
-11.27255   0.02018  -0.00033  -0.00528  -0.00029   0.00582   0.04134   0.00490   0.02964   0.00583
-11.22244   0.01947  -0.00035  -0.00595  -0.00030   0.00603   0.04732   0.00493   0.03304   0.00599
-11.17234   0.01904  -0.00035  -0.00615  -0.00031   0.00624   0.05614   0.00508   0.03723   0.00613
-11.12224   0.01875  -0.00035  -0.00646  -0.00031   0.00653   0.06229   0.00530   0.04116   0.00633
-11.07214   0.01874  -0.00036  -0.00652  -0.00032   0.00706   0.06700   0.00566   0.04523   0.00672
-11.02204   0.01921  -0.00039  -0.00646  -0.00032   0.00792   0.07481   0.00625   0.05013   0.00744
-10.97194   0.01951  -0.00039  -0.00653  -0.00030   0.00882   0.08759   0.00662   0.05683   0.00847
-10.92184   0.02269  -0.00034  -0.00729  -0.00027   0.01182   0.12044   0.00894   0.07096   0.01252
-10.87174   0.02367  -0.00035  -0.00638  -0.00024   0.01230   0.12496   0.01106   0.07348   0.01435
-10.82164   0.01474  -0.00036  -0.00433  -0.00024   0.00808   0.12147   0.00629   0.06959   0.00801
-10.77154   0.01023  -0.00031  -0.00269  -0.00021   0.00630   0.10559   0.00472   0.05816   0.00547
-10.72144   0.00743  -0.00028  -0.00187  -0.00018   0.00559   0.08284   0.00412   0.04517   0.00501
-10.67134   0.00552  -0.00028  -0.00184  -0.00016   0.00558   0.06445   0.00373   0.03995   0.00522
-10.62124   0.00435  -0.00031  -0.00187  -0.00017   0.00534   0.05578   0.00364   0.04068   0.00535
-10.57114   0.00363  -0.00038  -0.00178  -0.00018   0.00517   0.05071   0.00375   0.04276   0.00556
-10.52104   0.00328  -0.00046  -0.00172  -0.00021   0.00530   0.04858   0.00408   0.04672   0.00635
-10.47094   0.00322  -0.00055  -0.00176  -0.00024   0.00570   0.04415   0.00451   0.05084   0.00762
-10.42084   0.00327  -0.00065  -0.00185  -0.00030   0.00570   0.04448   0.00498   0.05883   0.00795
-10.37074   0.00353  -0.00083  -0.00210  -0.00047   0.00566   0.05381   0.00606   0.08164   0.00780
-10.32064   0.00474  -0.00125  -0.00272  -0.00080   0.00610   0.06934   0.00960   0.11052   0.00828
-10.27054   0.00504  -0.00180  -0.00294  -0.00124   0.00760   0.10260   0.00961   0.15681   0.01121
-10.22044   0.00313  -0.00135  -0.00237  -0.00132   0.01106   0.13559   0.00670   0.22264   0.01238
-10.17034   0.00276  -0.00137  -0.00184  -0.00146   0.01164   0.11402   0.00633   0.17642   0.01219
-10.12024   0.00250  -0.00147  -0.00116  -0.00160   0.01194   0.09422   0.00676   0.14133   0.01294
-10.07014   0.00220  -0.00148  -0.00073  -0.00160   0.01212   0.06178   0.00634   0.08812   0.01304
-10.02004   0.00201  -0.00156  -0.00053  -0.00165   0.01035   0.04567   0.00469   0.06051   0.01096
 -9.96994   0.00186  -0.00155  -0.00042  -0.00158   0.00836   0.03912   0.00335   0.04816   0.00874
 -9.91984   0.00130  -0.00088  -0.00035  -0.00085   0.00588   0.03745   0.00225   0.04396   0.00621
 -9.86974   0.00104  -0.00074  -0.00031  -0.00068   0.00527   0.03771   0.00204   0.04339   0.00562
 -9.81964   0.00079  -0.00071  -0.00027  -0.00062   0.00570   0.03681   0.00234   0.04131   0.00621
 -9.76954   0.00054  -0.00075  -0.00018  -0.00062   0.00727   0.02884   0.00309   0.02745   0.00822
 -9.71944   0.00038  -0.00077  -0.00017  -0.00062   0.00944   0.02514   0.00414   0.02284   0.01106
 -9.66934   0.00043  -0.00081  -0.00016  -0.00066   0.01148   0.02173   0.00440   0.01918   0.01359
 -9.61924   0.00082  -0.00113  -0.00014  -0.00096   0.01534   0.01844   0.00416   0.01635   0.01809
 -9.56914   0.00123  -0.00132  -0.00010  -0.00099   0.01972   0.01759   0.00519   0.02505   0.02228
 -9.51904   0.00067  -0.00058  -0.00009  -0.00044   0.01449   0.01342   0.00387   0.02105   0.01660
 -9.46894   0.00059  -0.00042  -0.00010  -0.00032   0.01483   0.00884   0.00401   0.01446   0.01691
 -9.41884   0.00076  -0.00032  -0.00011  -0.00026   0.01826   0.00417   0.00526   0.00652   0.02057
 -9.36874   0.00102  -0.00032  -0.00011  -0.00027   0.02009   0.00225   0.00657   0.00250   0.02162
 -9.31864   0.00122  -0.00026  -0.00017  -0.00020   0.01891   0.00275   0.00615   0.00261   0.02063
 -9.26854   0.00146  -0.00026  -0.00022  -0.00019   0.02005   0.00377   0.00654   0.00367   0.02202
 -9.21844   0.00163  -0.00026  -0.00025  -0.00019   0.02130   0.00503   0.00680   0.00498   0.02335
 -9.16834   0.00180  -0.00027  -0.00029  -0.00022   0.02323   0.00714   0.00722   0.00709   0.02548
 -9.11824   0.00216  -0.00037  -0.00038  -0.00038   0.02852   0.01289   0.00783   0.01263   0.03117
 -9.06814   0.00189  -0.00058  -0.00046  -0.00070   0.03210   0.02756   0.00709   0.02702   0.03607
 -9.01804   0.00219  -0.00086  -0.00074  -0.00101   0.03998   0.04862   0.00746   0.04967   0.04487
 -8.96794   0.00225  -0.00099  -0.00090  -0.00085   0.04387   0.02762   0.00755   0.03121   0.04317
 -8.91784   0.00270  -0.00121  -0.00148  -0.00104   0.05412   0.03115   0.00814   0.03172   0.05242
 -8.86774   0.00241  -0.00076  -0.00157  -0.00079   0.04643   0.03687   0.00726   0.03909   0.04722
 -8.81764   0.00211  -0.00069  -0.00157  -0.00070   0.04385   0.03917   0.00659   0.04193   0.04408