  COHP#       atomMU       atomNU     distance     translation      ICOHP (at) eF   for spin  1
      1          Mo3          Mo1      3.02136      -1  -1   0           -0.56970 
      2          Mo3          Mo1      3.02143       0   0   0           -0.56952 
      3           V5          Mo1      3.02135       0  -1   0           -0.42292 
      4           V5          Mo1      3.02121       0   0   0           -0.42402 
      5           V7          Mo1      3.02131      -1   0   0           -0.42384 
      6           V7          Mo1      3.02128       0   0   0           -0.42328 
      7           B8          Mo1      2.34471      -1  -1   0           -1.85500 
      8           B9          Mo1      2.34412      -1  -1   0           -1.85790 
      9          B10          Mo1      2.34473       0   0   0           -1.85417 
     10          B11          Mo1      2.34409       0   0   0           -1.85753 
     11          B12          Mo1      2.34474       0   0   0           -1.85494 
     12          B13          Mo1      2.34416       0   0   0           -1.85735 
     13          B14          Mo1      2.34475      -1  -1   0           -1.85424 
     14          B15          Mo1      2.34413      -1  -1   0           -1.85787 
     15          B16          Mo1      2.35841      -1   0   0           -1.79300 
     16          B17          Mo1      2.35776      -1   0   0           -1.79718 
     17          B18          Mo1      2.35841       0  -1   0           -1.79396 
     18          B19          Mo1      2.35781       0  -1   0           -1.79585 
     19          B20          Mo1      3.82274      -1  -1   0           -0.02103 
     20          B20          Mo1      3.78770       0  -1   0           -0.02266 
     21          B20          Mo1      3.82269       0   0   0           -0.02109 
     22          B21          Mo1      3.82128      -1  -1   0           -0.02102 
     23          B21          Mo1      3.78632       0  -1   0           -0.02280 
     24          B21          Mo1      3.82121       0   0   0           -0.02107 
     25          B22          Mo1      3.82270      -1  -1   0           -0.02103 
     26          B22          Mo1      3.78763      -1   0   0           -0.02269 
     27          B22          Mo1      3.82275       0   0   0           -0.02102 
     28          B23          Mo1      3.82124      -1  -1   0           -0.02110 
     29          B23          Mo1      3.78626      -1   0   0           -0.02263 
     30          B23          Mo1      3.82127       0   0   0           -0.02110 
     31          Mo3          Mo2      3.06956       0   0   0           -0.57504 
     32          Mo3          Mo2      3.06829       0   0   1           -0.57812 
     33           V4          Mo2      3.02142       0   0   0           -0.39373 
     34           V4          Mo2      3.02117       1   0   0           -0.39381 
     35           V6          Mo2      3.02127       0   0   0           -0.39425 
     36           V6          Mo2      3.02129       0   1   0           -0.39377 
     37           B8          Mo2      2.31104       0   0   0           -2.07686 
     38           B9          Mo2      2.30940       0   0   1           -2.08510 
     39          B10          Mo2      2.31109       0   0   0           -2.07629 
     40          B11          Mo2      2.30943       0   0   1           -2.08500 
     41          B12          Mo2      2.31109       0   0   0           -2.07661 
     42          B13          Mo2      2.30940       0   0   1           -2.08496 
     43          B14          Mo2      2.31107       0   0   0           -2.07661 
     44          B15          Mo2      2.30940       0   0   1           -2.08539 
     45          B16          Mo2      3.78897      -1   0   0           -0.03652 
     46          B16          Mo2      3.79206       0   0   0           -0.02760 
     47          B16          Mo2      3.78886       0   1   0           -0.03656 
     48          B17          Mo2      3.78847      -1   0   1           -0.03654 
     49          B17          Mo2      3.79072       0   0   1           -0.02735 
     50          B17          Mo2      3.78846       0   1   1           -0.03652 
     51          B18          Mo2      3.78889       0  -1   0           -0.03647 
     52          B18          Mo2      3.79221       0   0   0           -0.02746 
     53          B18          Mo2      3.78885       1   0   0           -0.03656 
     54          B19          Mo2      3.78845       0  -1   1           -0.03650 
     55          B19          Mo2      3.79080       0   0   1           -0.02744 
     56          B19          Mo2      3.78845       1   0   1           -0.03651 
     57          B20          Mo2      2.34400       0   0   0           -1.92189 
     58          B21          Mo2      2.34393       0   0   1           -1.92184 
     59          B22          Mo2      2.34394       0   0   0           -1.92183 
     60          B23          Mo2      2.34386       0   0   1           -1.92261 
     61           V5          Mo3      3.02127       0   0   0           -0.41406 
     62           V5          Mo3      3.02132       1   0   0           -0.41306 
     63           V7          Mo3      3.02127       0   0   0           -0.41260 
     64           V7          Mo3      3.02129       0   1   0           -0.41380 
     65           B8          Mo3      2.38331       0   0   0           -1.74750 
     66           B9          Mo3      2.38436       0   0   0           -1.74184 
     67          B10          Mo3      2.38334       0   0   0           -1.74691 
     68          B11          Mo3      2.38437       0   0   0           -1.74217 
     69          B12          Mo3      2.38330       0   0   0           -1.74769 
     70          B13          Mo3      2.38433       0   0   0           -1.74207 
     71          B14          Mo3      2.38326       0   0   0           -1.74720 
     72          B15          Mo3      2.38427       0   0   0           -1.74241 
     73          B16          Mo3      3.83245      -1   0   0           -0.01055 
     74          B16          Mo3      3.83562       0   0   0           -0.02888 
     75          B16          Mo3      3.83235       0   1   0           -0.01052 
     76          B17          Mo3      3.83299      -1   0   0           -0.01065 
     77          B17          Mo3      3.83530       0   0   0           -0.02916 
     78          B17          Mo3      3.83293       0   1   0           -0.01063 
     79          B18          Mo3      3.83241       0  -1   0           -0.01057 
     80          B18          Mo3      3.83558       0   0   0           -0.02891 
     81          B18          Mo3      3.83237       1   0   0           -0.01041 
     82          B19          Mo3      3.83301       0  -1   0           -0.01079 
     83          B19          Mo3      3.83519       0   0   0           -0.02907 
     84          B19          Mo3      3.83296       1   0   0           -0.01063 
     85          B20          Mo3      2.34111       0   0   0           -1.95518 
     86          B21          Mo3      2.34023       0   0   0           -1.95982 
     87          B22          Mo3      2.34111       0   0   0           -1.95572 
     88          B23          Mo3      2.34023       0   0   0           -1.96040 
     89           V5           V4      3.06855       0   0   0           -0.29775 
     90           V5           V4      3.06930       0   0   1           -0.29674 
     91           V6           V4      3.02141      -1   0   0           -0.29346 
     92           V6           V4      3.02139       0   1   0           -0.29345 
     93           B8           V4      2.28039      -1   0   0           -1.46053 
     94           B9           V4      2.27957      -1   0   1           -1.46312 
     95          B10           V4      2.28044       0   0   0           -1.46021 
     96          B11           V4      2.27967       0   0   1           -1.46288 
     97          B12           V4      3.80984      -1   0   0           -0.02046 
     98          B12           V4      3.79725       0   0   0           -0.02682 
     99          B12           V4      3.76075       0   1   0           -0.02972 
    100          B13           V4      3.80935      -1   0   1           -0.02037 
    101          B13           V4      3.79692       0   0   1           -0.02683 
    102          B13           V4      3.76024       0   1   1           -0.02976 
    103          B14           V4      3.76072      -1  -1   0           -0.02977 
    104          B14           V4      3.79718      -1   0   0           -0.02671 
    105          B14           V4      3.80990       0   0   0           -0.02043 
    106          B15           V4      3.76020      -1  -1   1           -0.02967 
    107          B15           V4      3.79676      -1   0   1           -0.02694 
    108          B15           V4      3.80952       0   0   1           -0.02037 
    109          B16           V4      2.28854      -1   0   0           -1.42190 
    110          B17           V4      2.28804      -1   0   1           -1.42368 
    111          B18           V4      2.28858       0   0   0           -1.42185 
    112          B19           V4      2.28810       0   0   1           -1.42329 
    113          B20           V4      2.31497       0   0   0           -1.32836 
    114          B21           V4      2.31605       0   0   1           -1.32348 
    115          B22           V4      2.31493      -1   0   0           -1.32841 
    116          B23           V4      2.31597      -1   0   1           -1.32378 
    117           V7           V5      3.02137      -1   0   0           -0.32404 
    118           V7           V5      3.02142       0   1   0           -0.32376 
    119           B8           V5      2.35397      -1   0   0           -1.21677 
    120           B9           V5      2.35520      -1   0   0           -1.21348 
    121          B10           V5      2.35395       0   0   0           -1.21742 
    122          B11           V5      2.35517       0   0   0           -1.21301 
    123          B12           V5      3.85431      -1   0   0           -0.02408 
    124          B12           V5      3.84175       0   0   0           -0.00526 
    125          B12           V5      3.80577       0   1   0           -0.00753 
    126          B13           V5      3.85507      -1   0   0           -0.02410 
    127          B13           V5      3.84263       0   0   0           -0.00547 
    128          B13           V5      3.80648       0   1   0           -0.00749 
    129          B14           V5      3.80571      -1  -1   0           -0.00744 
    130          B14           V5      3.84185      -1   0   0           -0.00541 
    131          B14           V5      3.85430       0   0   0           -0.02410 
    132          B15           V5      3.80645      -1  -1   0           -0.00763 
    133          B15           V5      3.84266      -1   0   0           -0.00534 
    134          B15           V5      3.85511       0   0   0           -0.02414 
    135          B16           V5      2.36022      -1   0   0           -1.20182 
    136          B17           V5      2.36070      -1   0   0           -1.20013 
    137          B18           V5      2.36023       0   0   0           -1.20177 
    138          B19           V5      2.36071       0   0   0           -1.20021 
    139          B20           V5      2.31244       0   0   0           -1.34814 
    140          B21           V5      2.31193       0   0   0           -1.35043 
    141          B22           V5      2.31241      -1   0   0           -1.34834 
    142          B23           V5      2.31192      -1   0   0           -1.35066 
    143           V7           V6      3.06855       0   0   0           -0.29775 
    144           V7           V6      3.06931       0   0   1           -0.29680 
    145           B8           V6      3.76068      -1  -1   0           -0.02968 
    146           B8           V6      3.79717       0  -1   0           -0.02684 
    147           B8           V6      3.80994       0   0   0           -0.02044 
    148           B9           V6      3.76010      -1  -1   1           -0.02974 
    149           B9           V6      3.79680       0  -1   1           -0.02681 
    150           B9           V6      3.80953       0   0   1           -0.02038 
    151          B10           V6      3.80984       0  -1   0           -0.02041 
    152          B10           V6      3.79715       0   0   0           -0.02674 
    153          B10           V6      3.76076       1   0   0           -0.02976 
    154          B11           V6      3.80943       0  -1   1           -0.02038 
    155          B11           V6      3.79676       0   0   1           -0.02692 
    156          B11           V6      3.76025       1   0   1           -0.02969 
    157          B12           V6      2.28043       0   0   0           -1.46026 
    158          B13           V6      2.27960       0   0   1           -1.46297 
    159          B14           V6      2.28039       0  -1   0           -1.46035 
    160          B15           V6      2.27963       0  -1   1           -1.46316 
    161          B16           V6      2.28855       0   0   0           -1.42191 
    162          B17           V6      2.28813       0   0   1           -1.42348 
    163          B18           V6      2.28855       0  -1   0           -1.42206 
    164          B19           V6      2.28803       0  -1   1           -1.42357 
    165          B20           V6      2.31493       0  -1   0           -1.32848 
    166          B21           V6      2.31598       0  -1   1           -1.32364 
    167          B22           V6      2.31502       0   0   0           -1.32807 
    168          B23           V6      2.31609       0   0   1           -1.32322 
    169           B8           V7      3.80572      -1  -1   0           -0.00757 
    170           B8           V7      3.84182       0  -1   0           -0.00527 
    171           B8           V7      3.85433       0   0   0           -0.02409 
    172           B9           V7      3.80643      -1  -1   0           -0.00749 
    173           B9           V7      3.84270       0  -1   0           -0.00549 
    174           B9           V7      3.85514       0   0   0           -0.02406 
    175          B10           V7      3.85438       0  -1   0           -0.02412 
    176          B10           V7      3.84172       0   0   0           -0.00542 
    177          B10           V7      3.80581       1   0   0           -0.00745 
    178          B11           V7      3.85521       0  -1   0           -0.02413 
    179          B11           V7      3.84256       0   0   0           -0.00538 
    180          B11           V7      3.80649       1   0   0           -0.00763 
    181          B12           V7      2.35385       0   0   0           -1.21713 
    182          B13           V7      2.35505       0   0   0           -1.21393 
    183          B14           V7      2.35393       0  -1   0           -1.21739 
    184          B15           V7      2.35520       0  -1   0           -1.21298 
    185          B16           V7      2.36024       0   0   0           -1.20178 
    186          B17           V7      2.36076       0   0   0           -1.19995 
    187          B18           V7      2.36019       0  -1   0           -1.20194 
    188          B19           V7      2.36067       0  -1   0           -1.20041 
    189          B20           V7      2.31249       0  -1   0           -1.34807 
    190          B21           V7      2.31200       0  -1   0           -1.35017 
    191          B22           V7      2.31241       0   0   0           -1.34836 
    192          B23           V7      2.31191       0   0   0           -1.35108 
    193           B9           B8      3.18150       0   0   0           -0.11380 
    194           B9           B8      2.95636       0   0   1           -0.25478 
    195          B10           B8      3.55079       0   0   0           -0.00174 
    196          B10           B8      3.47196       1   0   0            0.01554 
    197          B10           B8      3.44431       1   1   0            0.01163 
    198          B12           B8      3.08300       0   0   0           -0.05845 
    199          B12           B8      2.95979       1   1   0           -0.15694 
    200          B14           B8      1.76161       0   0   0           -6.61334 
    201          B15           B8      3.63663       0   0   0           -0.00535 
    202          B15           B8      3.44145       0   0   1           -0.01824 
    203          B16           B8      3.03149       0   0   0           -0.09780 
    204          B16           B8      3.01137       0   1   0           -0.13463 
    205          B18           B8      1.71217       1   0   0           -7.56709 
    206          B19           B8      3.61131       1   0   0           -0.00594 
    207          B19           B8      3.41835       1   0   1           -0.01694 
    208          B20           B8      3.06674       0   0   0           -0.04306 
    209          B20           B8      2.97697       1   0   0           -0.09858 
    210          B22           B8      1.78038       0   0   0           -6.51378 
    211          B23           B8      3.59293       0   0   0           -0.01032 
    212          B23           B8      3.50222       0   0   1           -0.01360 
    213          B11           B9      3.55100       0   0   0           -0.00189 
    214          B11           B9      3.47181       1   0   0            0.01561 
    215          B11           B9      3.44425       1   1   0            0.01152 
    216          B13           B9      3.08310       0   0   0           -0.05844 
    217          B13           B9      2.95969       1   1   0           -0.15681 
    218          B14           B9      3.44148       0   0  -1           -0.01824 
    219          B14           B9      3.63668       0   0   0           -0.00535 
    220          B15           B9      1.76173       0   0   0           -6.61051 
    221          B17           B9      3.03088       0   0   0           -0.09790 
    222          B17           B9      3.01199       0   1   0           -0.13419 
    223          B18           B9      3.41739       1   0  -1           -0.01702 
    224          B18           B9      3.61180       1   0   0           -0.00591 
    225          B19           B9      1.71243       1   0   0           -7.56329 
    226          B21           B9      3.06684       0   0   0           -0.04300 
    227          B21           B9      2.97697       1   0   0           -0.09859 
    228          B22           B9      3.49994       0   0  -1           -0.01365 
    229          B22           B9      3.59530       0   0   0           -0.01024 
    230          B23           B9      1.78045       0   0   0           -6.51173 
    231          B11          B10      3.18153       0   0   0           -0.11382 
    232          B11          B10      2.95632       0   0   1           -0.25484 
    233          B12          B10      1.76158       0   0   0           -6.61383 
    234          B13          B10      3.63666       0   0   0           -0.00535 
    235          B13          B10      3.44148       0   0   1           -0.01823 
    236          B14          B10      2.95984      -1  -1   0           -0.15713 
    237          B14          B10      3.08295       0   0   0           -0.05858 
    238          B16          B10      1.71223      -1   0   0           -7.56675 
    239          B17          B10      3.61138      -1   0   0           -0.00594 
    240          B17          B10      3.41825      -1   0   1           -0.01693 
    241          B18          B10      3.01137       0  -1   0           -0.13454 
    242          B18          B10      3.03148       0   0   0           -0.09774 
    243          B20          B10      1.78035       0   0   0           -6.51427 
    244          B21          B10      3.59297       0   0   0           -0.01032 
    245          B21          B10      3.50217       0   0   1           -0.01359 
    246          B22          B10      2.97700      -1   0   0           -0.09846 
    247          B22          B10      3.06671       0   0   0           -0.04310 
    248          B12          B11      3.44146       0   0  -1           -0.01823 
    249          B12          B11      3.63662       0   0   0           -0.00535 
    250          B13          B11      1.76174       0   0   0           -6.61059 
    251          B15          B11      2.95969      -1  -1   0           -0.15661 
    252          B15          B11      3.08310       0   0   0           -0.05830 
    253          B16          B11      3.41741      -1   0  -1           -0.01701 
    254          B16          B11      3.61187      -1   0   0           -0.00591 
    255          B17          B11      1.71242      -1   0   0           -7.56315 
    256          B19          B11      3.01200       0  -1   0           -0.13429 
    257          B19          B11      3.03086       0   0   0           -0.09804 
    258          B20          B11      3.49988       0   0  -1           -0.01367 
    259          B20          B11      3.59535       0   0   0           -0.01025 
    260          B21          B11      1.78044       0   0   0           -6.51201 
    261          B23          B11      2.97703      -1   0   0           -0.09866 
    262          B23          B11      3.06679       0   0   0           -0.04297 
    263          B13          B12      3.18140       0   0   0           -0.11385 
    264          B13          B12      2.95646       0   0   1           -0.25474 
    265          B14          B12      3.44445      -1  -1   0            0.01162 
    266          B14          B12      3.47186       0  -1   0            0.01555 
    267          B14          B12      3.55075       0   0   0           -0.00175 
    268          B16          B12      3.01145      -1   0   0           -0.13464 
    269          B16          B12      3.03143       0   0   0           -0.09782 
    270          B18          B12      1.71219       0  -1   0           -7.56668 
    271          B19          B12      3.61128       0  -1   0           -0.00594 
    272          B19          B12      3.41838       0  -1   1           -0.01693 
    273          B20          B12      2.97698       0  -1   0           -0.09855 
    274          B20          B12      3.06670       0   0   0           -0.04307 
    275          B22          B12      1.78036       0   0   0           -6.51417 
    276          B23          B12      3.59288       0   0   0           -0.01033 
    277          B23          B12      3.50227       0   0   1           -0.01360 
    278          B15          B13      3.44444      -1  -1   0            0.01150 
    279          B15          B13      3.47173       0  -1   0            0.01561 
    280          B15          B13      3.55090       0   0   0           -0.00189 
    281          B17          B13      3.01208      -1   0   0           -0.13424 
    282          B17          B13      3.03081       0   0   0           -0.09794 
    283          B18          B13      3.41749       0  -1  -1           -0.01701 
    284          B18          B13      3.61176       0  -1   0           -0.00592 
    285          B19          B13      1.71247       0  -1   0           -7.56284 
    286          B21          B13      2.97699       0  -1   0           -0.09857 
    287          B21          B13      3.06679       0   0   0           -0.04300 
    288          B22          B13      3.49994       0   0  -1           -0.01364 
    289          B22          B13      3.59522       0   0   0           -0.01026 
    290          B23          B13      1.78038       0   0   0           -6.51268 
    291          B15          B14      3.18145       0   0   0           -0.11385 
    292          B15          B14      2.95640       0   0   1           -0.25473 
    293          B16          B14      1.71218       0   1   0           -7.56736 
    294          B17          B14      3.61133       0   1   0           -0.00593 
    295          B17          B14      3.41832       0   1   1           -0.01693 
    296          B18          B14      3.03143       0   0   0           -0.09775 
    297          B18          B14      3.01146       1   0   0           -0.13456 
    298          B20          B14      1.78034       0   0   0           -6.51446 
    299          B21          B14      3.59294       0   0   0           -0.01032 
    300          B21          B14      3.50219       0   0   1           -0.01360 
    301          B22          B14      3.06671       0   0   0           -0.04311 
    302          B22          B14      2.97697       0   1   0           -0.09847 
    303          B16          B15      3.41740       0   1  -1           -0.01702 
    304          B16          B15      3.61184       0   1   0           -0.00591 
    305          B17          B15      1.71247       0   1   0           -7.56226 
    306          B19          B15      3.03082       0   0   0           -0.09802 
    307          B19          B15      3.01207       1   0   0           -0.13430 
    308          B20          B15      3.49992       0   0  -1           -0.01368 
    309          B20          B15      3.59531       0   0   0           -0.01026 
    310          B21          B15      1.78044       0   0   0           -6.51213 
    311          B23          B15      3.06675       0   0   0           -0.04296 
    312          B23          B15      2.97704       0   1   0           -0.09865 
    313          B17          B16      3.17827       0   0   0           -0.12871 
    314          B17          B16      2.95959       0   0   1           -0.28078 
    315          B18          B16      3.49119       0  -1   0            0.01243 
    316          B18          B16      3.48377       1  -1   0            0.00926 
    317          B18          B16      3.49121       1   0   0            0.01241 
    318          B20          B16      3.02205       0  -1   0           -0.08144 
    319          B20          B16      3.02205       1   0   0           -0.08146 
    320          B22          B16      1.72226       0   0   0           -7.59562 
    321          B23          B16      3.56351       0   0   0           -0.01042 
    322          B23          B16      3.47417       0   0   1           -0.01531 
    323          B19          B17      3.49054       0  -1   0            0.01245 
    324          B19          B17      3.48513       1  -1   0            0.00911 
    325          B19          B17      3.49051       1   0   0            0.01243 
    326          B21          B17      3.02212       0  -1   0           -0.08150 
    327          B21          B17      3.02203       1   0   0           -0.08152 
    328          B22          B17      3.47218       0   0  -1           -0.01540 
    329          B22          B17      3.56481       0   0   0           -0.01037 
    330          B23          B17      1.72176       0   0   0           -7.60206 
    331          B19          B18      3.17817       0   0   0           -0.12878 
    332          B19          B18      2.95969       0   0   1           -0.28068 
    333          B20          B18      1.72227       0   0   0           -7.59535 
    334          B21          B18      3.56350       0   0   0           -0.01041 
    335          B21          B18      3.47420       0   0   1           -0.01535 
    336          B22          B18      3.02202      -1   0   0           -0.08152 
    337          B22          B18      3.02207       0   1   0           -0.08149 
    338          B20          B19      3.47214       0   0  -1           -0.01538 
    339          B20          B19      3.56479       0   0   0           -0.01040 
    340          B21          B19      1.72169       0   0   0           -7.60303 
    341          B23          B19      3.02206      -1   0   0           -0.08147 
    342          B23          B19      3.02209       0   1   0           -0.08147 
    343          B21          B20      3.06399       0   0   0           -0.17703 
    344          B21          B20      3.07387       0   0   1           -0.14976 
    345          B22          B20      3.46361      -1   0   0            0.00638 
    346          B22          B20      3.53945       0   0   0           -0.00962 
    347          B22          B20      3.46367       0   1   0            0.00638 
    348          B23          B21      3.46369      -1   0   0            0.00640 
    349          B23          B21      3.53929       0   0   0           -0.00970 
    350          B23          B21      3.46375       0   1   0            0.00641 
    351          B23          B22      3.06390       0   0   0           -0.17697 
    352          B23          B22      3.07396       0   0   1           -0.14970 
