   52   52    1    1
  0.2272233E+02  0.8645320E-09  0.6085000E-09  0.2593596E-08  0.5000000E-15
   1.0000000000000000E-004
  CAR 
 Name                                    
    192    149    128

  0.3742002E-15  0.3742002E-15  0.3742002E-15  0.3367003E-02
    1      -13.845626   1.000000
    2      -12.522463   1.000000
    3      -12.345130   1.000000
    4      -11.814025   1.000000
    5      -11.574245   1.000000
    6      -11.091564   1.000000
    7      -11.075735   1.000000
    8      -10.987682   1.000000
    9      -10.977084   1.000000
   10      -10.539336   1.000000
   11      -10.538009   1.000000
   12      -10.396494   1.000000
   13      -10.041908   1.000000
   14      -10.037082   1.000000
   15       -9.706018   1.000000
   16       -9.702321   1.000000
   17       -9.208984   1.000000
   18       -9.011857   1.000000
   19       -9.006079   1.000000
   20       -8.651577   1.000000
   21       -8.645181   1.000000
   22       -8.252364   1.000000
   23       -8.237505   1.000000
   24       -7.958114   1.000000
   25       -7.899823   1.000000
   26       -7.890068   1.000000
   27       -7.388977   1.000000
   28       -7.347054   1.000000
   29       -7.081495   1.000000
   30       -6.600583   1.000000
   31       -6.456843   1.000000
   32       -6.410260   1.000000
   33       -6.016411   1.000000
   34       -5.972130   1.000000
   35       -5.814080   1.000000
   36       -5.617755   1.000000
   37       -5.468707   1.000000
   38       -5.433318   1.000000
   39       -5.347944   1.000000
   40       -5.320243   1.000000
   41       -5.176224   1.000000
   42       -5.158735   1.000000
   43       -5.039427   1.000000
   44       -4.912496   1.000000
   45       -4.856087   1.000000
   46       -4.813630   1.000000
   47       -4.694515   1.000000
   48       -4.617736   1.000000
   49       -4.551171   1.000000
   50       -4.444977   1.000000
   51       -4.436988   1.000000
   52       -4.401603   1.000000
   53       -4.290999   1.000000
   54       -4.256212   1.000000
   55       -4.175541   1.000000
   56       -4.106330   1.000000
   57       -4.061799   1.000000
   58       -3.923044   1.000000
   59       -3.917812   1.000000
   60       -3.862085   1.000000
   61       -3.846867   1.000000
   62       -3.719892   1.000000
   63       -3.485235   1.000000
   64       -3.461143   1.000000
   65       -3.312288   1.000000
   66       -3.296265   1.000000
   67       -3.237542   1.000000
   68       -3.219901   1.000000
   69       -3.178428   1.000000
   70       -3.131676   1.000000
   71       -3.121582   1.000000
   72       -3.104069   1.000000
   73       -3.000686   1.000000
   74       -2.969088   1.000000
   75       -2.597879   1.000000
   76       -2.443741   1.000000
   77       -2.181183   1.000000
   78       -2.139312   1.000000
   79       -2.087600   1.000000
   80       -2.080646   1.000000
   81       -1.909389   1.000000
   82       -1.631500   1.000000
   83       -1.358736   1.000000
   84       -1.355193   1.000000
   85       -1.285916   1.000000
   86       -0.986819   1.000000
   87       -0.911187   1.000000
   88       -0.881935   1.000000
   89       -0.746822   1.000000
   90       -0.259190   1.000000
   91       -0.164781   1.000000
   92        0.064096   1.021711
   93        0.184791   0.824602
   94        0.200266   0.717815
   95        0.206046   0.673386
   96        0.298574   0.034879
   97        0.305188   0.014841
   98        0.640612  -0.000000
   99        0.656566  -0.000000
  100        0.713089  -0.000000
  101        0.730231  -0.000000
  102        0.782466  -0.000000
  103        0.841493  -0.000000
  104        0.898672  -0.000000
  105        1.021278  -0.000000
  106        1.070292  -0.000000
  107        1.077912  -0.000000
  108        1.370240  -0.000000
  109        1.464274  -0.000000
  110        1.492628  -0.000000
  111        1.587235  -0.000000
  112        1.623901  -0.000000
  113        1.630995  -0.000000
  114        1.726740  -0.000000
  115        1.729176  -0.000000
  116        1.856467  -0.000000
  117        1.868684  -0.000000
  118        1.919524  -0.000000
  119        1.924347  -0.000000
  120        2.054722  -0.000000
  121        2.099477  -0.000000
  122        2.250610  -0.000000
  123        2.257785  -0.000000
  124        2.310354  -0.000000
  125        2.372950  -0.000000
  126        2.421753  -0.000000
  127        2.898895  -0.000000
  128        3.529403   0.000000

  0.1111111E+00  0.3729374E-15  0.3860503E-15  0.6734007E-02
    1      -13.818566   1.000000
    2      -12.498030   1.000000
    3      -12.462549   1.000000
    4      -11.755688   1.000000
    5      -11.556829   1.000000
    6      -11.114222   1.000000
    7      -11.075022   1.000000
    8      -10.985900   1.000000
    9      -10.980783   1.000000
   10      -10.536969   1.000000
   11      -10.536311   1.000000
   12      -10.401416   1.000000
   13      -10.035349   1.000000
   14      -10.030582   1.000000
   15       -9.691375   1.000000
   16       -9.688097   1.000000
   17       -9.176526   1.000000
   18       -9.028190   1.000000
   19       -9.023386   1.000000
   20       -8.636678   1.000000
   21       -8.630785   1.000000
   22       -8.301058   1.000000
   23       -8.291479   1.000000
   24       -7.948528   1.000000
   25       -7.933361   1.000000
   26       -7.885839   1.000000
   27       -7.500692   1.000000
   28       -7.397253   1.000000
   29       -6.984964   1.000000
   30       -6.510593   1.000000
   31       -6.434060   1.000000
   32       -6.391526   1.000000
   33       -5.993996   1.000000
   34       -5.954762   1.000000
   35       -5.816943   1.000000
   36       -5.716855   1.000000
   37       -5.477784   1.000000
   38       -5.435017   1.000000
   39       -5.296245   1.000000
   40       -5.267921   1.000000
   41       -5.180043   1.000000
   42       -5.178704   1.000000
   43       -4.988127   1.000000
   44       -4.884565   1.000000
   45       -4.861146   1.000000
   46       -4.811326   1.000000
   47       -4.656994   1.000000
   48       -4.635380   1.000000
   49       -4.536609   1.000000
   50       -4.484174   1.000000
   51       -4.427226   1.000000
   52       -4.378868   1.000000
   53       -4.301267   1.000000
   54       -4.217635   1.000000
   55       -4.188501   1.000000
   56       -4.083238   1.000000
   57       -4.052514   1.000000
   58       -3.959859   1.000000
   59       -3.922497   1.000000
   60       -3.861916   1.000000
   61       -3.853335   1.000000
   62       -3.705182   1.000000
   63       -3.487175   1.000000
   64       -3.474076   1.000000
   65       -3.337435   1.000000
   66       -3.273138   1.000000
   67       -3.258586   1.000000
   68       -3.224064   1.000000
   69       -3.162529   1.000000
   70       -3.125541   1.000000
   71       -3.112950   1.000000
   72       -3.071813   1.000000
   73       -3.006577   1.000000
   74       -2.977711   1.000000
   75       -2.681276   1.000000
   76       -2.420651   1.000000
   77       -2.184696   1.000000
   78       -2.162567   1.000000
   79       -2.129788   1.000000
   80       -2.116706   1.000000
   81       -1.921982   1.000000
   82       -1.525425   1.000000
   83       -1.366093   1.000000
   84       -1.354510   1.000000
   85       -1.305908   1.000000
   86       -0.968987   1.000000
   87       -0.895749   1.000000
   88       -0.866977   1.000000
   89       -0.650540   1.000000
   90       -0.320647   1.000000
   91       -0.236251   1.000000
   92        0.083476   1.030400
   93        0.133577   1.016943
   94        0.196091   0.748514
   95        0.214287   0.606945
   96        0.277100   0.129566
   97        0.357725  -0.034531
   98        0.610134  -0.000000
   99        0.613003  -0.000000
  100        0.692518  -0.000000
  101        0.757359  -0.000000
  102        0.774533  -0.000000
  103        0.890270  -0.000000
  104        0.914402  -0.000000
  105        1.018779  -0.000000
  106        1.104364  -0.000000
  107        1.105995  -0.000000
  108        1.419640  -0.000000
  109        1.441365  -0.000000
  110        1.542973  -0.000000
  111        1.577677  -0.000000
  112        1.636703  -0.000000
  113        1.639544  -0.000000
  114        1.726496  -0.000000
  115        1.755473  -0.000000
  116        1.829779  -0.000000
  117        1.832741  -0.000000
  118        1.924242  -0.000000
  119        1.926310  -0.000000
  120        2.057914  -0.000000
  121        2.106140  -0.000000
  122        2.210250  -0.000000
  123        2.243487  -0.000000
  124        2.340955  -0.000000
  125        2.402552  -0.000000
  126        2.439794  -0.000000
  127        2.696317  -0.000000
  128        3.916586   0.000000

  0.2222222E+00  0.3922785E-15  0.3630220E-15  0.6734007E-02
    1      -13.738151   1.000000
    2      -12.700987   1.000000
    3      -12.425821   1.000000
    4      -11.717747   1.000000
    5      -11.507154   1.000000
    6      -11.194544   1.000000
    7      -11.030921   1.000000
    8      -10.982500   1.000000
    9      -10.958440   1.000000
   10      -10.529874   1.000000
   11      -10.529202   1.000000
   12      -10.448324   1.000000
   13      -10.023459   1.000000
   14      -10.019261   1.000000
   15       -9.647762   1.000000
   16       -9.645448   1.000000
   17       -9.082846   1.000000
   18       -9.057001   1.000000
   19       -9.043828   1.000000
   20       -8.604553   1.000000
   21       -8.599391   1.000000
   22       -8.427173   1.000000
   23       -8.425185   1.000000
   24       -8.047640   1.000000
   25       -8.043720   1.000000
   26       -7.763994   1.000000
   27       -7.720917   1.000000
   28       -7.368471   1.000000
   29       -6.899294   1.000000
   30       -6.393498   1.000000
   31       -6.375969   1.000000
   32       -6.272315   1.000000
   33       -6.050508   1.000000
   34       -5.914660   1.000000
   35       -5.905423   1.000000
   36       -5.735531   1.000000
   37       -5.426148   1.000000
   38       -5.409545   1.000000
   39       -5.336765   1.000000
   40       -5.213816   1.000000
   41       -5.119260   1.000000
   42       -5.110689   1.000000
   43       -4.926161   1.000000
   44       -4.864116   1.000000
   45       -4.820628   1.000000
   46       -4.783549   1.000000
   47       -4.775810   1.000000
   48       -4.621511   1.000000
   49       -4.503346   1.000000
   50       -4.453866   1.000000
   51       -4.386896   1.000000
   52       -4.327294   1.000000
   53       -4.292749   1.000000
   54       -4.227632   1.000000
   55       -4.166307   1.000000
   56       -4.046516   1.000000
   57       -4.037730   1.000000
   58       -3.963166   1.000000
   59       -3.960524   1.000000
   60       -3.865028   1.000000
   61       -3.815356   1.000000
   62       -3.689054   1.000000
   63       -3.521914   1.000000
   64       -3.514226   1.000000
   65       -3.407116   1.000000
   66       -3.293063   1.000000
   67       -3.274694   1.000000
   68       -3.227812   1.000000
   69       -3.161402   1.000000
   70       -3.131971   1.000000
   71       -3.100828   1.000000
   72       -3.051999   1.000000
   73       -2.949428   1.000000
   74       -2.912642   1.000000
   75       -2.815977   1.000000
   76       -2.375503   1.000000
   77       -2.329159   1.000000
   78       -2.311075   1.000000
   79       -2.237172   1.000000
   80       -1.978574   1.000000
   81       -1.963750   1.000000
   82       -1.413267   1.000000
   83       -1.400460   1.000000
   84       -1.329360   1.000000
   85       -1.261261   1.000000
   86       -0.904554   1.000000
   87       -0.857742   1.000000
   88       -0.822864   1.000000
   89       -0.445751   1.000000
   90       -0.415351   1.000000
   91       -0.397556   1.000000
   92       -0.047300   1.000365
   93        0.114978   1.033540
   94        0.126528   1.025649
   95        0.236114   0.423544
   96        0.370403  -0.030480
   97        0.474661  -0.001287
   98        0.486880  -0.000738
   99        0.553492  -0.000020
  100        0.662081  -0.000000
  101        0.768428  -0.000000
  102        0.785576  -0.000000
  103        0.891301  -0.000000
  104        0.892523  -0.000000
  105        1.061358  -0.000000
  106        1.271642  -0.000000
  107        1.272882  -0.000000
  108        1.353544  -0.000000
  109        1.517695  -0.000000
  110        1.566263  -0.000000
  111        1.605756  -0.000000
  112        1.660095  -0.000000
  113        1.665381  -0.000000
  114        1.718548  -0.000000
  115        1.758707  -0.000000
  116        1.765130  -0.000000
  117        1.840168  -0.000000
  118        1.909724  -0.000000
  119        1.923577  -0.000000
  120        2.069394  -0.000000
  121        2.117900  -0.000000
  122        2.143601  -0.000000
  123        2.189700  -0.000000
  124        2.299902  -0.000000
  125        2.373901  -0.000000
  126        2.451717  -0.000000
  127        2.788655  -0.000000
  128        3.792365   0.000000

  0.3333333E+00  0.3713828E-15  0.3468587E-15  0.6734007E-02
    1      -13.606743   1.000000
    2      -12.962010   1.000000
    3      -12.309397   1.000000
    4      -11.810237   1.000000
    5      -11.433579   1.000000
    6      -11.240614   1.000000
    7      -10.986700   1.000000
    8      -10.971082   1.000000
    9      -10.903508   1.000000
   10      -10.557014   1.000000
   11      -10.516760   1.000000
   12      -10.511949   1.000000
   13      -10.018998   1.000000
   14      -10.016257   1.000000
   15       -9.583815   1.000000
   16       -9.582382   1.000000
   17       -9.083188   1.000000
   18       -9.076758   1.000000
   19       -8.876797   1.000000
   20       -8.626387   1.000000
   21       -8.620733   1.000000
   22       -8.523851   1.000000
   23       -8.521583   1.000000
   24       -8.183910   1.000000
   25       -8.166918   1.000000
   26       -8.041791   1.000000
   27       -7.509732   1.000000
   28       -7.230984   1.000000
   29       -6.925140   1.000000
   30       -6.405812   1.000000
   31       -6.354693   1.000000
   32       -6.318603   1.000000
   33       -5.999315   1.000000
   34       -5.878680   1.000000
   35       -5.868213   1.000000
   36       -5.622045   1.000000
   37       -5.452140   1.000000
   38       -5.329416   1.000000
   39       -5.288232   1.000000
   40       -5.233822   1.000000
   41       -5.063916   1.000000
   42       -5.040772   1.000000
   43       -4.984205   1.000000
   44       -4.975002   1.000000
   45       -4.806059   1.000000
   46       -4.776689   1.000000
   47       -4.669797   1.000000
   48       -4.583594   1.000000
   49       -4.456095   1.000000
   50       -4.399318   1.000000
   51       -4.351722   1.000000
   52       -4.308467   1.000000
   53       -4.253828   1.000000
   54       -4.234368   1.000000
   55       -4.098162   1.000000
   56       -4.061437   1.000000
   57       -4.027420   1.000000
   58       -3.994845   1.000000
   59       -3.875392   1.000000
   60       -3.861986   1.000000
   61       -3.738697   1.000000
   62       -3.707655   1.000000
   63       -3.586822   1.000000
   64       -3.532992   1.000000
   65       -3.511763   1.000000
   66       -3.319949   1.000000
   67       -3.316069   1.000000
   68       -3.246428   1.000000
   69       -3.216163   1.000000
   70       -3.146170   1.000000
   71       -3.114349   1.000000
   72       -3.077716   1.000000
   73       -2.831692   1.000000
   74       -2.807092   1.000000
   75       -2.793151   1.000000
   76       -2.520446   1.000000
   77       -2.514142   1.000000
   78       -2.376883   1.000000
   79       -2.299683   1.000000
   80       -2.033296   1.000000
   81       -1.778585   1.000000
   82       -1.497737   1.000000
   83       -1.494474   1.000000
   84       -1.308557   1.000000
   85       -1.040986   1.000000
   86       -0.810183   1.000000
   87       -0.800011   1.000000
   88       -0.692088   1.000000
   89       -0.576214   1.000000
   90       -0.549221   1.000000
   91       -0.271824   1.000000
   92       -0.110822   1.000010
   93        0.041564   1.012417
   94        0.065473   1.022343
   95        0.274014   0.146964
   96        0.363765  -0.032899
   97        0.385341  -0.023852
   98        0.481853  -0.000931
   99        0.523911  -0.000111
  100        0.737963  -0.000000
  101        0.747519  -0.000000
  102        0.834182  -0.000000
  103        0.835368  -0.000000
  104        1.030057  -0.000000
  105        1.176245  -0.000000
  106        1.184151  -0.000000
  107        1.462375  -0.000000
  108        1.470157  -0.000000
  109        1.557194  -0.000000
  110        1.578398  -0.000000
  111        1.619853  -0.000000
  112        1.671331  -0.000000
  113        1.703657  -0.000000
  114        1.714468  -0.000000
  115        1.722560  -0.000000
  116        1.723625  -0.000000
  117        1.849379  -0.000000
  118        1.871646  -0.000000
  119        1.957811  -0.000000
  120        1.989259  -0.000000
  121        2.083579  -0.000000
  122        2.102399  -0.000000
  123        2.187140  -0.000000
  124        2.258295  -0.000000
  125        2.307573  -0.000000
  126        2.322960  -0.000000
  127        2.529204  -0.000000
  128        3.875243   0.000000

  0.4444444E+00  0.3870091E-15  0.3932070E-15  0.6734007E-02
    1      -13.428557   1.000000
    2      -13.210226   1.000000
    3      -12.155873   1.000000
    4      -11.979182   1.000000
    5      -11.351673   1.000000
    6      -11.283032   1.000000
    7      -10.967193   1.000000
    8      -10.963867   1.000000
    9      -10.804216   1.000000
   10      -10.681513   1.000000
   11      -10.505780   1.000000
   12      -10.504719   1.000000
   13      -10.021559   1.000000
   14      -10.020597   1.000000
   15       -9.531116   1.000000
   16       -9.530039   1.000000
   17       -9.075640   1.000000
   18       -9.072902   1.000000
   19       -8.736702   1.000000
   20       -8.735865   1.000000
   21       -8.642782   1.000000
   22       -8.500974   1.000000
   23       -8.483660   1.000000
   24       -8.367828   1.000000
   25       -8.257995   1.000000
   26       -8.240649   1.000000
   27       -7.285146   1.000000
   28       -7.070180   1.000000
   29       -6.989645   1.000000
   30       -6.694359   1.000000
   31       -6.348753   1.000000
   32       -6.345806   1.000000
   33       -5.856069   1.000000
   34       -5.851326   1.000000
   35       -5.710431   1.000000
   36       -5.530877   1.000000
   37       -5.460941   1.000000
   38       -5.311798   1.000000
   39       -5.247000   1.000000
   40       -5.243916   1.000000
   41       -5.176129   1.000000
   42       -5.137364   1.000000
   43       -5.001444   1.000000
   44       -4.995504   1.000000
   45       -4.701467   1.000000
   46       -4.686487   1.000000
   47       -4.612153   1.000000
   48       -4.541374   1.000000
   49       -4.497684   1.000000
   50       -4.389297   1.000000
   51       -4.311740   1.000000
   52       -4.303776   1.000000
   53       -4.200025   1.000000
   54       -4.166289   1.000000
   55       -4.143158   1.000000
   56       -4.095616   1.000000
   57       -3.998733   1.000000
   58       -3.962173   1.000000
   59       -3.860940   1.000000
   60       -3.762795   1.000000
   61       -3.751915   1.000000
   62       -3.667244   1.000000
   63       -3.660071   1.000000
   64       -3.561566   1.000000
   65       -3.529173   1.000000
   66       -3.468125   1.000000
   67       -3.312446   1.000000
   68       -3.303503   1.000000
   69       -3.176767   1.000000
   70       -3.152294   1.000000
   71       -3.094595   1.000000
   72       -3.073738   1.000000
   73       -2.806724   1.000000
   74       -2.798211   1.000000
   75       -2.684299   1.000000
   76       -2.622357   1.000000
   77       -2.616486   1.000000
   78       -2.530316   1.000000
   79       -2.212390   1.000000
   80       -2.119434   1.000000
   81       -1.618256   1.000000
   82       -1.581946   1.000000
   83       -1.512449   1.000000
   84       -1.367646   1.000000
   85       -0.898322   1.000000
   86       -0.809771   1.000000
   87       -0.747305   1.000000
   88       -0.679272   1.000000
   89       -0.565463   1.000000
   90       -0.463101   1.000000
   91       -0.389997   1.000000
   92       -0.085685   1.000045
   93       -0.003557   1.002636
   94        0.038191   1.011270
   95        0.206721   0.668066
   96        0.341238  -0.034280
   97        0.353392  -0.035238
   98        0.446104  -0.004117
   99        0.694279  -0.000000
  100        0.696181  -0.000000
  101        0.778855  -0.000000
  102        0.810182  -0.000000
  103        0.812258  -0.000000
  104        0.968583  -0.000000
  105        1.328759  -0.000000
  106        1.372097  -0.000000
  107        1.453147  -0.000000
  108        1.550403  -0.000000
  109        1.569717  -0.000000
  110        1.637704  -0.000000
  111        1.648815  -0.000000
  112        1.671220  -0.000000
  113        1.676773  -0.000000
  114        1.705627  -0.000000
  115        1.738547  -0.000000
  116        1.748613  -0.000000
  117        1.785793  -0.000000
  118        1.863726  -0.000000
  119        1.886007  -0.000000
  120        2.018203  -0.000000
  121        2.039953  -0.000000
  122        2.088445  -0.000000
  123        2.124211  -0.000000
  124        2.220419  -0.000000
  125        2.276505  -0.000000
  126        2.370700  -0.000000
  127        2.404342  -0.000000
  128        2.590884  -0.000000

  0.3742002E-15  0.9090909E-01  0.3596334E-15  0.6734007E-02
    1      -13.812271   1.000000
    2      -12.492621   1.000000
    3      -12.350462   1.000000
    4      -11.782011   1.000000
    5      -11.550476   1.000000
    6      -11.206038   1.000000
    7      -11.166127   1.000000
    8      -11.035181   1.000000
    9      -11.028852   1.000000
   10      -10.560512   1.000000
   11      -10.527082   1.000000
   12      -10.371768   1.000000
   13       -9.984761   1.000000
   14       -9.973737   1.000000
   15       -9.734873   1.000000
   16       -9.729425   1.000000
   17       -9.177444   1.000000
   18       -9.068318   1.000000
   19       -9.020878   1.000000
   20       -8.676677   1.000000
   21       -8.645872   1.000000
   22       -8.129131   1.000000
   23       -8.104703   1.000000
   24       -7.909234   1.000000
   25       -7.792103   1.000000
   26       -7.743344   1.000000
   27       -7.415979   1.000000
   28       -7.364866   1.000000
   29       -7.060576   1.000000
   30       -6.549250   1.000000
   31       -6.501580   1.000000
   32       -6.407592   1.000000
   33       -6.011761   1.000000
   34       -5.950962   1.000000
   35       -5.867065   1.000000
   36       -5.627243   1.000000
   37       -5.464147   1.000000
   38       -5.446138   1.000000
   39       -5.306961   1.000000
   40       -5.266708   1.000000
   41       -5.231019   1.000000
   42       -5.184107   1.000000
   43       -5.048696   1.000000
   44       -4.935893   1.000000
   45       -4.846994   1.000000
   46       -4.841657   1.000000
   47       -4.718172   1.000000
   48       -4.695079   1.000000
   49       -4.620354   1.000000
   50       -4.525980   1.000000
   51       -4.458719   1.000000
   52       -4.383489   1.000000
   53       -4.350279   1.000000
   54       -4.267562   1.000000
   55       -4.248324   1.000000
   56       -4.118381   1.000000
   57       -4.116327   1.000000
   58       -3.945422   1.000000
   59       -3.860226   1.000000
   60       -3.815660   1.000000
   61       -3.770154   1.000000
   62       -3.719444   1.000000
   63       -3.481079   1.000000
   64       -3.479041   1.000000
   65       -3.326678   1.000000
   66       -3.314617   1.000000
   67       -3.299683   1.000000
   68       -3.229996   1.000000
   69       -3.192091   1.000000
   70       -3.146280   1.000000
   71       -3.105434   1.000000
   72       -3.059347   1.000000
   73       -2.984051   1.000000
   74       -2.982112   1.000000
   75       -2.678908   1.000000
   76       -2.431062   1.000000
   77       -2.157596   1.000000
   78       -2.126982   1.000000
   79       -2.121276   1.000000
   80       -2.037622   1.000000
   81       -1.861613   1.000000
   82       -1.566316   1.000000
   83       -1.391019   1.000000
   84       -1.354695   1.000000
   85       -1.270987   1.000000
   86       -1.023985   1.000000
   87       -0.915232   1.000000
   88       -0.897223   1.000000
   89       -0.797264   1.000000
   90       -0.409980   1.000000
   91       -0.165770   1.000000
   92       -0.028345   1.000907
   93        0.053681   1.017109
   94        0.097601   1.034779
   95        0.238319   0.405202
   96        0.274257   0.145561
   97        0.275355   0.139290
   98        0.502095  -0.000352
   99        0.557528  -0.000015
  100        0.669012  -0.000000
  101        0.820396  -0.000000
  102        0.853523  -0.000000
  103        0.901990  -0.000000
  104        1.064585  -0.000000
  105        1.089887  -0.000000
  106        1.109364  -0.000000
  107        1.149177  -0.000000
  108        1.385327  -0.000000
  109        1.483921  -0.000000
  110        1.535399  -0.000000
  111        1.564662  -0.000000
  112        1.591424  -0.000000
  113        1.653090  -0.000000
  114        1.738407  -0.000000
  115        1.758964  -0.000000
  116        1.816700  -0.000000
  117        1.840496  -0.000000
  118        1.887788  -0.000000
  119        1.916380  -0.000000
  120        2.079351  -0.000000
  121        2.125935  -0.000000
  122        2.141099  -0.000000
  123        2.156329  -0.000000
  124        2.196445  -0.000000
  125        2.460331  -0.000000
  126        2.482815  -0.000000
  127        2.697992  -0.000000
  128        3.791189   0.000000

  0.1111111E+00  0.9090909E-01  0.4822234E-15  0.6734007E-02
    1      -13.763374   1.000000
    2      -12.533420   1.000000
    3      -12.448508   1.000000
    4      -11.710429   1.000000
    5      -11.519322   1.000000
    6      -11.249766   1.000000
    7      -11.114079   1.000000
    8      -11.110710   1.000000
    9      -11.000006   1.000000
   10      -10.568774   1.000000
   11      -10.459073   1.000000
   12      -10.390111   1.000000
   13      -10.036005   1.000000
   14       -9.994981   1.000000
   15       -9.682944   1.000000
   16       -9.681973   1.000000
   17       -9.135309   1.000000
   18       -9.097245   1.000000
   19       -8.993799   1.000000
   20       -8.720204   1.000000
   21       -8.641530   1.000000
   22       -8.218459   1.000000
   23       -8.164996   1.000000
   24       -7.880576   1.000000
   25       -7.787618   1.000000
   26       -7.774099   1.000000
   27       -7.612701   1.000000
   28       -7.370432   1.000000
   29       -6.962731   1.000000
   30       -6.539766   1.000000
   31       -6.400044   1.000000
   32       -6.304619   1.000000
   33       -6.014188   1.000000
   34       -5.910612   1.000000
   35       -5.877162   1.000000
   36       -5.751949   1.000000
   37       -5.512717   1.000000
   38       -5.342132   1.000000
   39       -5.314824   1.000000
   40       -5.260442   1.000000
   41       -5.191071   1.000000
   42       -5.177375   1.000000
   43       -4.971614   1.000000
   44       -4.910286   1.000000
   45       -4.847504   1.000000
   46       -4.836858   1.000000
   47       -4.753240   1.000000
   48       -4.633414   1.000000
   49       -4.588158   1.000000
   50       -4.491011   1.000000
   51       -4.440113   1.000000
   52       -4.352855   1.000000
   53       -4.351952   1.000000
   54       -4.293892   1.000000
   55       -4.226058   1.000000
   56       -4.141877   1.000000
   57       -4.075595   1.000000
   58       -3.987302   1.000000
   59       -3.859014   1.000000
   60       -3.818418   1.000000
   61       -3.769241   1.000000
   62       -3.686844   1.000000
   63       -3.518429   1.000000
   64       -3.498125   1.000000
   65       -3.368417   1.000000
   66       -3.340542   1.000000
   67       -3.281778   1.000000
   68       -3.222011   1.000000
   69       -3.218667   1.000000
   70       -3.114489   1.000000
   71       -3.103763   1.000000
   72       -3.011259   1.000000
   73       -3.009687   1.000000
   74       -2.951384   1.000000
   75       -2.761195   1.000000
   76       -2.400572   1.000000
   77       -2.282493   1.000000
   78       -2.195370   1.000000
   79       -2.103680   1.000000
   80       -2.037742   1.000000
   81       -1.926663   1.000000
   82       -1.471814   1.000000
   83       -1.449276   1.000000
   84       -1.338278   1.000000
   85       -1.269818   1.000000
   86       -1.001043   1.000000
   87       -0.911174   1.000000
   88       -0.806110   1.000000
   89       -0.639134   1.000000
   90       -0.473649   1.000000
   91       -0.228778   1.000000
   92       -0.006720   1.002319
   93        0.032148   1.009397
   94        0.170537   0.903695
   95        0.174132   0.885644
   96        0.292013   0.058912
   97        0.309775   0.003278
   98        0.398909  -0.017740
   99        0.512557  -0.000205
  100        0.725643  -0.000000
  101        0.782409  -0.000000
  102        0.908799  -0.000000
  103        0.918560  -0.000000
  104        1.007146  -0.000000
  105        1.063627  -0.000000
  106        1.114194  -0.000000
  107        1.301851  -0.000000
  108        1.433549  -0.000000
  109        1.445877  -0.000000
  110        1.503712  -0.000000
  111        1.584449  -0.000000
  112        1.646114  -0.000000
  113        1.702775  -0.000000
  114        1.704723  -0.000000
  115        1.755899  -0.000000
  116        1.768072  -0.000000
  117        1.862912  -0.000000
  118        1.899903  -0.000000
  119        1.914688  -0.000000
  120        2.081461  -0.000000
  121        2.090599  -0.000000
  122        2.137604  -0.000000