 running on   48 total cores
 distrk:  each k-point on   48 cores,    1 groups
 distr:  one band on    6 cores,    8 groups
 using from now: INCAR     
 vasp.5.4.4.18Apr17-6-g9f103f2a35 (build Dec  7 2020 12:43:57) complex           
 POSCAR found type information on POSCAR  Mo V  B  H 
 POSCAR found :  4 types and      52 ions
 scaLAPACK will be used

 ----------------------------------------------------------------------------- 
|                                                                             |
|  ADVICE TO THIS USER RUNNING 'VASP/VAMP'   (HEAR YOUR MASTER'S VOICE ...):  |
|                                                                             |
|      You enforced a specific xc-type in the INCAR file,                     |
|      a different type was found on the POTCAR file                          |
|          I HOPE YOU KNOW, WHAT YOU ARE  DOING                               |
|                                                                             |
 ----------------------------------------------------------------------------- 

 LDA part: xc-table for Pade appr. of Perdew
 POSCAR, INCAR and KPOINTS ok, starting setup
 resort distribution
 resort distribution
 resort distribution
 resort distribution
 resort distribution
 resort distribution
 resort distribution
 resort distribution
 resort distribution
 resort distribution
 resort distribution
 resort distribution
 resort distribution
 resort distribution
 resort distribution
 resort distribution
 resort distribution
 resort distribution
 resort distribution
 resort distribution
 resort distribution
 resort distribution
 resort distribution
 resort distribution
 resort distribution
 resort distribution
 resort distribution
 resort distribution
 resort distribution
 resort distribution
 resort distribution
 resort distribution
 resort distribution
 resort distribution
 resort distribution
 resort distribution
 resort distribution
 resort distribution
 resort distribution
 resort distribution
 resort distribution
 resort distribution
 resort distribution
 resort distribution
 resort distribution
 resort distribution
 resort distribution
 resort distribution
 FFT: planning ...
 WAVECAR not read
 augmentation electrons   192.00949091862262     
 soft         electrons   0.0000000000000000     
 augmentation electrons   192.00949091862262     
 soft         electrons   0.0000000000000000     
 augmentation electrons   192.00949091862262     
 soft         electrons   0.0000000000000000     
 augmentation electrons   192.00949091862262     
 soft         electrons   0.0000000000000000     
 augmentation electrons   192.00949091862262     
 soft         electrons   0.0000000000000000     
 augmentation electrons   192.00949091862262     
 soft         electrons   0.0000000000000000     
 augmentation electrons   192.00949091862262     
 soft         electrons   0.0000000000000000     
 augmentation electrons   192.00949091862262     
 soft         electrons   0.0000000000000000     
 augmentation electrons   192.00949091862262     
 soft         electrons   0.0000000000000000     
 augmentation electrons   192.00949091862262     
 soft         electrons   0.0000000000000000     
 augmentation electrons   192.00949091862262     
 soft         electrons   0.0000000000000000     
 augmentation electrons   192.00949091862262     
 soft         electrons   0.0000000000000000     
 augmentation electrons   192.00949091862262     
 soft         electrons   0.0000000000000000     
 augmentation electrons   192.00949091862262     
 soft         electrons   0.0000000000000000     
 augmentation electrons   192.00949091862262     
 soft         electrons   0.0000000000000000     
 augmentation electrons   192.00949091862262     
 soft         electrons   0.0000000000000000     
 augmentation electrons   192.00949091862262     
 soft         electrons   0.0000000000000000     
 augmentation electrons   192.00949091862262     
 soft         electrons   0.0000000000000000     
 augmentation electrons   192.00949091862262     
 soft         electrons   0.0000000000000000     
 augmentation electrons   192.00949091862262     
 soft         electrons   0.0000000000000000     
 augmentation electrons   192.00949091862262     
 soft         electrons   0.0000000000000000     
 augmentation electrons   192.00949091862262     
 soft         electrons   0.0000000000000000     
 augmentation electrons   192.00949091862262     
 soft         electrons   0.0000000000000000     
 augmentation electrons   192.00949091862262     
 soft         electrons   0.0000000000000000     
 augmentation electrons   192.00949091862262     
 soft         electrons   0.0000000000000000     
 augmentation electrons   192.00949091862262     
 soft         electrons   0.0000000000000000     
 augmentation electrons   192.00949091862262     
 soft         electrons   0.0000000000000000     
 augmentation electrons   192.00949091862262     
 soft         electrons   0.0000000000000000     
 augmentation electrons   192.00949091862262     
 soft         electrons   0.0000000000000000     
 augmentation electrons   192.00949091862262     
 soft         electrons   0.0000000000000000     
 augmentation electrons   192.00949091862262     
 soft         electrons   0.0000000000000000     
 augmentation electrons   192.00949091862262     
 soft         electrons   0.0000000000000000     
 augmentation electrons   192.00949091862262     
 soft         electrons   0.0000000000000000     
 augmentation electrons   192.00949091862262     
 soft         electrons   0.0000000000000000     
 augmentation electrons   192.00949091862262     
 soft         electrons   0.0000000000000000     
 augmentation electrons   192.00949091862262     
 soft         electrons   0.0000000000000000     
 augmentation electrons   192.00949091862262     
 soft         electrons   0.0000000000000000     
 augmentation electrons   192.00949091862262     
 soft         electrons   0.0000000000000000     
 augmentation electrons   192.00949091862262     
 soft         electrons   0.0000000000000000     
 augmentation electrons   192.00949091862262     
 soft         electrons   0.0000000000000000     
 augmentation electrons   192.00949091862262     
 soft         electrons   0.0000000000000000     
 augmentation electrons   192.00949091862262     
 soft         electrons   0.0000000000000000     
 augmentation electrons   192.00949091862262     
 soft         electrons   0.0000000000000000     
 augmentation electrons   192.00949091862262     
 soft         electrons   0.0000000000000000     
 augmentation electrons   192.00949091862262     
 soft         electrons   0.0000000000000000     
 augmentation electrons   192.00949091862262     
 soft         electrons   0.0000000000000000     
 augmentation electrons   192.00949091862262     
 soft         electrons   0.0000000000000000     
 augmentation electrons   192.00949091862262     
 soft         electrons   0.0000000000000000     
 total        electrons   192.00949091862262     
 total        electrons   192.00949091862262     
 total        electrons   192.00949091862262     
 total        electrons   192.00949091862262     
 total        electrons   192.00949091862262     
 total        electrons   192.00949091862262     
 total        electrons   192.00949091862262     
 total        electrons   192.00949091862262     
 total        electrons   192.00949091862262     
 total        electrons   192.00949091862262     
 total        electrons   192.00949091862262     
 total        electrons   192.00949091862262     
 total        electrons   192.00949091862262     
 total        electrons   192.00949091862262     
 total        electrons   192.00949091862262     
 total        electrons   192.00949091862262     
 total        electrons   192.00949091862262     
 total        electrons   192.00949091862262     
 total        electrons   192.00949091862262     
 total        electrons   192.00949091862262     
 total        electrons   192.00949091862262     
 total        electrons   192.00949091862262     
 total        electrons   192.00949091862262     
 total        electrons   192.00949091862262     
 total        electrons   192.00949091862262     
 total        electrons   192.00949091862262     
 total        electrons   192.00949091862262     
 total        electrons   192.00949091862262     
 total        electrons   192.00949091862262     
 total        electrons   192.00949091862262     
 total        electrons   192.00949091862262     
 total        electrons   192.00949091862262     
 total        electrons   192.00949091862262     
 total        electrons   192.00949091862262     
 total        electrons   192.00949091862262     
 total        electrons   192.00949091862262     
 total        electrons   192.00949091862262     
 total        electrons   192.00949091862262     
 total        electrons   192.00949091862262     
 total        electrons   192.00949091862262     
 total        electrons   192.00949091862262     
 total        electrons   192.00949091862262     
 total        electrons   192.00949091862262     
 total        electrons   192.00949091862262     
 total        electrons   192.00949091862262     
 total        electrons   192.00949091862262     
 total        electrons   192.00949091862262     
 total        electrons   192.00949091862262     
 augmentation electrons   591.20336086273380     
 soft         electrons   0.0000000000000000     
 augmentation electrons   591.20336086273380     
 soft         electrons   0.0000000000000000     
 augmentation electrons   591.20336086273380     
 soft         electrons   0.0000000000000000     
 augmentation electrons   591.20336086273380     
 soft         electrons   0.0000000000000000     
 augmentation electrons   591.20336086273380     
 soft         electrons   0.0000000000000000     
 augmentation electrons   591.20336086273380     
 soft         electrons   0.0000000000000000     
 augmentation electrons   591.20336086273380     
 soft         electrons   0.0000000000000000     
 augmentation electrons   591.20336086273380     
 soft         electrons   0.0000000000000000     
 augmentation electrons   591.20336086273380     
 soft         electrons   0.0000000000000000     
 augmentation electrons   591.20336086273380     
 soft         electrons   0.0000000000000000     
 augmentation electrons   591.20336086273380     
 soft         electrons   0.0000000000000000     
 augmentation electrons   591.20336086273380     
 soft         electrons   0.0000000000000000     
 augmentation electrons   591.20336086273380     
 soft         electrons   0.0000000000000000     
 augmentation electrons   591.20336086273380     
 soft         electrons   0.0000000000000000     
 augmentation electrons   591.20336086273380     
 soft         electrons   0.0000000000000000     
 augmentation electrons   591.20336086273380     
 soft         electrons   0.0000000000000000     
 augmentation electrons   591.20336086273380     
 soft         electrons   0.0000000000000000     
 augmentation electrons   591.20336086273380     
 soft         electrons   0.0000000000000000     
 augmentation electrons   591.20336086273380     
 soft         electrons   0.0000000000000000     
 augmentation electrons   591.20336086273380     
 soft         electrons   0.0000000000000000     
 augmentation electrons   591.20336086273380     
 soft         electrons   0.0000000000000000     
 augmentation electrons   591.20336086273380     
 soft         electrons   0.0000000000000000     
 augmentation electrons   591.20336086273380     
 soft         electrons   0.0000000000000000     
 augmentation electrons   591.20336086273380     
 soft         electrons   0.0000000000000000     
 augmentation electrons   591.20336086273380     
 soft         electrons   0.0000000000000000     
 augmentation electrons   591.20336086273380     
 soft         electrons   0.0000000000000000     
 augmentation electrons   591.20336086273380     
 soft         electrons   0.0000000000000000     
 augmentation electrons   591.20336086273380     
 soft         electrons   0.0000000000000000     
 augmentation electrons   591.20336086273380     
 soft         electrons   0.0000000000000000     
 augmentation electrons   591.20336086273380     
 soft         electrons   0.0000000000000000     
 augmentation electrons   591.20336086273380     
 soft         electrons   0.0000000000000000     
 augmentation electrons   591.20336086273380     
 soft         electrons   0.0000000000000000     
 augmentation electrons   591.20336086273380     
 soft         electrons   0.0000000000000000     
 augmentation electrons   591.20336086273380     
 soft         electrons   0.0000000000000000     
 augmentation electrons   591.20336086273380     
 soft         electrons   0.0000000000000000     
 augmentation electrons   591.20336086273380     
 soft         electrons   0.0000000000000000     
 augmentation electrons   591.20336086273380     
 soft         electrons   0.0000000000000000     
 augmentation electrons   591.20336086273380     
 soft         electrons   0.0000000000000000     
 augmentation electrons   591.20336086273380     
 soft         electrons   0.0000000000000000     
 augmentation electrons   591.20336086273380     
 soft         electrons   0.0000000000000000     
 augmentation electrons   591.20336086273380     
 soft         electrons   0.0000000000000000     
 augmentation electrons   591.20336086273380     
 soft         electrons   0.0000000000000000     
 augmentation electrons   591.20336086273380     
 soft         electrons   0.0000000000000000     
 augmentation electrons   591.20336086273380     
 soft         electrons   0.0000000000000000     
 augmentation electrons   591.20336086273380     
 soft         electrons   0.0000000000000000     
 augmentation electrons   591.20336086273380     
 soft         electrons   0.0000000000000000     
 augmentation electrons   591.20336086273380     
 soft         electrons   0.0000000000000000     
 augmentation electrons   591.20336086273380     
 soft         electrons   0.0000000000000000     
 total        electrons   591.20336086273380     
 total        electrons   591.20336086273380     
 total        electrons   591.20336086273380     
 total        electrons   591.20336086273380     
 total        electrons   591.20336086273380     
 total        electrons   591.20336086273380     
 total        electrons   591.20336086273380     
 total        electrons   591.20336086273380     
 total        electrons   591.20336086273380     
 total        electrons   591.20336086273380     
 total        electrons   591.20336086273380     
 total        electrons   591.20336086273380     
 total        electrons   591.20336086273380     
 total        electrons   591.20336086273380     
 total        electrons   591.20336086273380     
 total        electrons   591.20336086273380     
 total        electrons   591.20336086273380     
 total        electrons   591.20336086273380     
 total        electrons   591.20336086273380     
 total        electrons   591.20336086273380     
 total        electrons   591.20336086273380     
 total        electrons   591.20336086273380     
 total        electrons   591.20336086273380     
 total        electrons   591.20336086273380     
 total        electrons   591.20336086273380     
 total        electrons   591.20336086273380     
 total        electrons   591.20336086273380     
 total        electrons   591.20336086273380     
 total        electrons   591.20336086273380     
 total        electrons   591.20336086273380     
 total        electrons   591.20336086273380     
 total        electrons   591.20336086273380     
 total        electrons   591.20336086273380     
 total        electrons   591.20336086273380     
 total        electrons   591.20336086273380     
 total        electrons   591.20336086273380     
 total        electrons   591.20336086273380     
 total        electrons   591.20336086273380     
 total        electrons   591.20336086273380     
 total        electrons   591.20336086273380     
 total        electrons   591.20336086273380     
 total        electrons   591.20336086273380     
 total        electrons   591.20336086273380     
 total        electrons   591.20336086273380     
 total        electrons   591.20336086273380     
 total        electrons   591.20336086273380     
 total        electrons   591.20336086273380     
 total        electrons   591.20336086273380     
 entering main loop
       N       E                     dE             d eps       ncg     rms          rms(c)
DAV:   1     0.159998047095E+04    0.16000E+04   -0.69366E+04 38168   0.121E+03
DAV:   2    -0.177515299992E+03   -0.17775E+04   -0.16645E+04 45240   0.293E+02
DAV:   3    -0.438699434153E+03   -0.26118E+03   -0.24821E+03 53648   0.131E+02
DAV:   4    -0.458627224685E+03   -0.19928E+02   -0.19018E+02 62096   0.401E+01
DAV:   5    -0.459733726456E+03   -0.11065E+01   -0.10761E+01 64616   0.839E+00    0.116E+02
RMM:   6    -0.428376615794E+03    0.31357E+02   -0.76194E+02 59509   0.835E+01    0.589E+01
RMM:   7    -0.484702016284E+03   -0.56325E+02   -0.22778E+02 50947   0.431E+01    0.455E+01
RMM:   8    -0.416752234244E+03    0.67950E+02   -0.90514E+01 50632   0.232E+01    0.323E+01
RMM:   9    -0.396711545388E+03    0.20041E+02   -0.25512E+01 54003   0.153E+01    0.218E+01
RMM:  10    -0.390733849485E+03    0.59777E+01   -0.19871E+01 47297   0.150E+01    0.156E+01
RMM:  11    -0.389861277878E+03    0.87257E+00   -0.33458E+00 45285   0.694E+00    0.134E+01
RMM:  12    -0.390054816336E+03   -0.19354E+00   -0.13802E+00 58727   0.206E+00    0.118E+01
RMM:  13    -0.389330971681E+03    0.72384E+00   -0.45236E+00 43309   0.895E+00    0.661E+00
RMM:  14    -0.389243624286E+03    0.87347E-01   -0.18694E+00 60133   0.236E+00    0.447E+00
RMM:  15    -0.389151311564E+03    0.92313E-01   -0.38261E-01 47867   0.209E+00    0.377E+00
RMM:  16    -0.389023132273E+03    0.12818E+00   -0.25024E-01 52844   0.153E+00    0.174E+00
RMM:  17    -0.389003404903E+03    0.19727E-01   -0.24286E-01 59461   0.102E+00    0.150E+00
RMM:  18    -0.388991712001E+03    0.11693E-01   -0.44119E-02 52832   0.652E-01    0.104E+00
RMM:  19    -0.388977258985E+03    0.14453E-01   -0.26445E-02 56455   0.343E-01    0.369E-01
RMM:  20    -0.388977785452E+03   -0.52647E-03   -0.16502E-02 50001   0.444E-01    0.581E-01
RMM:  21    -0.388973336455E+03    0.44490E-02   -0.54011E-03 45171   0.279E-01    0.935E-02
RMM:  22    -0.388973134851E+03    0.20160E-03   -0.63792E-03 58273   0.141E-01    0.118E-01
RMM:  23    -0.388973918487E+03   -0.78364E-03   -0.23967E-03 56455   0.106E-01    0.207E-01
RMM:  24    -0.388974317444E+03   -0.39896E-03   -0.97754E-04 45205   0.126E-01    0.590E-02
RMM:  25    -0.388975358495E+03   -0.10411E-02   -0.11874E-03 47464   0.106E-01    0.951E-02
RMM:  26    -0.388975758531E+03   -0.40004E-03   -0.44605E-04 53494   0.386E-02    0.546E-02
RMM:  27    -0.388976099640E+03   -0.34111E-03   -0.18916E-04 47217   0.517E-02    0.243E-02
RMM:  28    -0.388976339053E+03   -0.23941E-03   -0.92187E-05 51464   0.153E-02    0.134E-02
RMM:  29    -0.388976393954E+03   -0.54901E-04   -0.22928E-05 44537   0.151E-02    0.757E-03
RMM:  30    -0.388976452634E+03   -0.58681E-04   -0.14957E-05 41701   0.839E-03    0.792E-03
RMM:  31    -0.388976519113E+03   -0.66479E-04   -0.63043E-06 35396   0.823E-03    0.755E-03
RMM:  32    -0.388976580923E+03   -0.61810E-04   -0.87879E-06 36505   0.592E-03    0.765E-03
RMM:  33    -0.388976643604E+03   -0.62681E-04   -0.49650E-06 35615   0.517E-03    0.521E-03
RMM:  34    -0.388976694756E+03   -0.51152E-04   -0.47006E-06 35133   0.641E-03    0.296E-03
RMM:  35    -0.388976736191E+03   -0.41436E-04   -0.42279E-06 34508   0.344E-03    0.310E-03
RMM:  36    -0.388976743096E+03   -0.69043E-05   -0.91559E-07 29457   0.434E-03    0.297E-03
RMM:  37    -0.388976755108E+03   -0.12012E-04   -0.11217E-06 29817   0.305E-03    0.148E-03
RMM:  38    -0.388976758781E+03   -0.36725E-05   -0.45090E-07 25545   0.213E-03    0.104E-03
RMM:  39    -0.388976763027E+03   -0.42464E-05   -0.45523E-07 25342   0.179E-03    0.928E-04
RMM:  40    -0.388976764039E+03   -0.10122E-05   -0.22422E-07 20769   0.132E-03    0.280E-04
RMM:  41    -0.388976764676E+03   -0.63734E-06   -0.13829E-07 18668   0.100E-03
   1 F= -.38897676E+03 E0= -.38897594E+03  d E =-.246897E-02
 augmentation electrons   21.071743055488461     
 soft         electrons   170.98245035478300     
 augmentation electrons   21.071743055488461     
 soft         electrons   170.98245035478300     
 augmentation electrons   21.071743055488461     
 soft         electrons   170.98245035478300     
 augmentation electrons   21.071743055488461     
 soft         electrons   170.98245035478300     
 augmentation electrons   21.071743055488461     
 soft         electrons   170.98245035478300     
 augmentation electrons   21.071743055488461     
 soft         electrons   170.98245035478300     
 augmentation electrons   21.071743055488461     
 soft         electrons   170.98245035478300     
 augmentation electrons   21.071743055488461     
 soft         electrons   170.98245035478300     
 augmentation electrons   21.071743055488461     
 soft         electrons   170.98245035478300     
 augmentation electrons   21.071743055488461     
 soft         electrons   170.98245035478300     
 augmentation electrons   21.071743055488461     
 soft         electrons   170.98245035478300     
 augmentation electrons   21.071743055488461     
 soft         electrons   170.98245035478300     
 augmentation electrons   21.071743055488461     
 soft         electrons   170.98245035478300     
 augmentation electrons   21.071743055488461     
 soft         electrons   170.98245035478300     
 augmentation electrons   21.071743055488461     
 soft         electrons   170.98245035478300     
 augmentation electrons   21.071743055488461     
 soft         electrons   170.98245035478300     
 augmentation electrons   21.071743055488461     
 soft         electrons   170.98245035478300     
 augmentation electrons   21.071743055488461     
 soft         electrons   170.98245035478300     
 augmentation electrons   21.071743055488461     
 soft         electrons   170.98245035478300     
 augmentation electrons   21.071743055488461     
 soft         electrons   170.98245035478300     
 augmentation electrons   21.071743055488461     
 soft         electrons   170.98245035478300     
 augmentation electrons   21.071743055488461     
 soft         electrons   170.98245035478300     
 augmentation electrons   21.071743055488461     
 soft         electrons   170.98245035478300     
 augmentation electrons   21.071743055488461     
 soft         electrons   170.98245035478300     
 augmentation electrons   21.071743055488461     
 soft         electrons   170.98245035478300     
 augmentation electrons   21.071743055488461     
 soft         electrons   170.98245035478300     
 augmentation electrons   21.071743055488461     
 soft         electrons   170.98245035478300     
 augmentation electrons   21.071743055488461     
 soft         electrons   170.98245035478300     
 augmentation electrons   21.071743055488461     
 soft         electrons   170.98245035478300     
 augmentation electrons   21.071743055488461     
 soft         electrons   170.98245035478300     
 augmentation electrons   21.071743055488461     
 soft         electrons   170.98245035478300     
 augmentation electrons   21.071743055488461     
 soft         electrons   170.98245035478300     
 augmentation electrons   21.071743055488461     
 soft         electrons   170.98245035478300     
 augmentation electrons   21.071743055488461     
 soft         electrons   170.98245035478300     
 augmentation electrons   21.071743055488461     
 soft         electrons   170.98245035478300     
 augmentation electrons   21.071743055488461     
 soft         electrons   170.98245035478300     
 augmentation electrons   21.071743055488461     
 soft         electrons   170.98245035478300     
 augmentation electrons   21.071743055488461     
 soft         electrons   170.98245035478300     
 augmentation electrons   21.071743055488461     
 soft         electrons   170.98245035478300     
 augmentation electrons   21.071743055488461     
 soft         electrons   170.98245035478300     
 augmentation electrons   21.071743055488461     
 soft         electrons   170.98245035478300     
 augmentation electrons   21.071743055488461     
 soft         electrons   170.98245035478300     
 augmentation electrons   21.071743055488461     
 soft         electrons   170.98245035478300     
 augmentation electrons   21.071743055488461     
 soft         electrons   170.98245035478300     
 augmentation electrons   21.071743055488461     
 soft         electrons   170.98245035478300     
 augmentation electrons   21.071743055488461     
 soft         electrons   170.98245035478300     
 augmentation electrons   21.071743055488461     
 soft         electrons   170.98245035478300     
 augmentation electrons   21.071743055488461     
 soft         electrons   170.98245035478300     
 total        electrons   192.05419341027147     
 total        electrons   192.05419341027147     
 total        electrons   192.05419341027147     
 total        electrons   192.05419341027147     
 total        electrons   192.05419341027147     
 total        electrons   192.05419341027147     
 total        electrons   192.05419341027147     
 total        electrons   192.05419341027147     
 total        electrons   192.05419341027147     
 total        electrons   192.05419341027147     
 total        electrons   192.05419341027147     
 total        electrons   192.05419341027147     
 total        electrons   192.05419341027147     
 total        electrons   192.05419341027147     
 total        electrons   192.05419341027147     
 total        electrons   192.05419341027147     
 total        electrons   192.05419341027147     
 total        electrons   192.05419341027147     
 total        electrons   192.05419341027147     
 total        electrons   192.05419341027147     
 total        electrons   192.05419341027147     
 total        electrons   192.05419341027147     
 total        electrons   192.05419341027147     
 total        electrons   192.05419341027147     
 total        electrons   192.05419341027147     
 total        electrons   192.05419341027147     
 total        electrons   192.05419341027147     
 total        electrons   192.05419341027147     
 total        electrons   192.05419341027147     
 total        electrons   192.05419341027147     
 total        electrons   192.05419341027147     
 total        electrons   192.05419341027147     
 total        electrons   192.05419341027147     
 total        electrons   192.05419341027147     
 total        electrons   192.05419341027147     
 total        electrons   192.05419341027147     
 total        electrons   192.05419341027147     
 total        electrons   192.05419341027147     
 total        electrons   192.05419341027147     
 total        electrons   192.05419341027147     
 total        electrons   192.05419341027147     
 total        electrons   192.05419341027147     
 total        electrons   192.05419341027147     
 total        electrons   192.05419341027147     
 total        electrons   192.05419341027147     
 total        electrons   192.05419341027147     
 total        electrons   192.05419341027147     
 total        electrons   192.05419341027147     
Note: The following floating-point exceptions are signalling: IEEE_OVERFLOW_FLAG
Note: The following floating-point exceptions are signalling: IEEE_OVERFLOW_FLAG
Note: The following floating-point exceptions are signalling: IEEE_OVERFLOW_FLAG
Note: The following floating-point exceptions are signalling: IEEE_OVERFLOW_FLAG
Note: The following floating-point exceptions are signalling: IEEE_OVERFLOW_FLAG
Note: The following floating-point exceptions are signalling: IEEE_OVERFLOW_FLAG
Note: The following floating-point exceptions are signalling: IEEE_OVERFLOW_FLAG
Note: The following floating-point exceptions are signalling: IEEE_OVERFLOW_FLAG
Note: The following floating-point exceptions are signalling: IEEE_OVERFLOW_FLAG
Note: The following floating-point exceptions are signalling: IEEE_OVERFLOW_FLAG
Note: The following floating-point exceptions are signalling: IEEE_OVERFLOW_FLAG
Note: The following floating-point exceptions are signalling: IEEE_OVERFLOW_FLAG
Note: The following floating-point exceptions are signalling: IEEE_OVERFLOW_FLAG
Note: The following floating-point exceptions are signalling: IEEE_OVERFLOW_FLAG
Note: The following floating-point exceptions are signalling: IEEE_OVERFLOW_FLAG
Note: The following floating-point exceptions are signalling: IEEE_OVERFLOW_FLAG
Note: The following floating-point exceptions are signalling: IEEE_OVERFLOW_FLAG
Note: The following floating-point exceptions are signalling: IEEE_OVERFLOW_FLAG
Note: The following floating-point exceptions are signalling: IEEE_OVERFLOW_FLAG
Note: The following floating-point exceptions are signalling: IEEE_OVERFLOW_FLAG
Note: The following floating-point exceptions are signalling: IEEE_OVERFLOW_FLAG
Note: The following floating-point exceptions are signalling: IEEE_OVERFLOW_FLAG
Note: The following floating-point exceptions are signalling: IEEE_OVERFLOW_FLAG
Note: The following floating-point exceptions are signalling: IEEE_OVERFLOW_FLAG
Note: The following floating-point exceptions are signalling: IEEE_OVERFLOW_FLAG
Note: The following floating-point exceptions are signalling: IEEE_OVERFLOW_FLAG
Note: The following floating-point exceptions are signalling: IEEE_OVERFLOW_FLAG
Note: The following floating-point exceptions are signalling: IEEE_OVERFLOW_FLAG
Note: The following floating-point exceptions are signalling: IEEE_OVERFLOW_FLAG
Note: The following floating-point exceptions are signalling: IEEE_OVERFLOW_FLAG
Note: The following floating-point exceptions are signalling: IEEE_OVERFLOW_FLAG
Note: The following floating-point exceptions are signalling: IEEE_OVERFLOW_FLAG
Note: The following floating-point exceptions are signalling: IEEE_OVERFLOW_FLAG
Note: The following floating-point exceptions are signalling: IEEE_OVERFLOW_FLAG
Note: The following floating-point exceptions are signalling: IEEE_OVERFLOW_FLAG
Note: The following floating-point exceptions are signalling: IEEE_OVERFLOW_FLAG
Note: The following floating-point exceptions are signalling: IEEE_OVERFLOW_FLAG
Note: The following floating-point exceptions are signalling: IEEE_OVERFLOW_FLAG
Note: The following floating-point exceptions are signalling: IEEE_OVERFLOW_FLAG
Note: The following floating-point exceptions are signalling: IEEE_OVERFLOW_FLAG
Note: The following floating-point exceptions are signalling: IEEE_OVERFLOW_FLAG
Note: The following floating-point exceptions are signalling: IEEE_OVERFLOW_FLAG
Note: The following floating-point exceptions are signalling: IEEE_OVERFLOW_FLAG
Note: The following floating-point exceptions are signalling: IEEE_OVERFLOW_FLAG
Note: The following floating-point exceptions are signalling: IEEE_OVERFLOW_FLAG
Note: The following floating-point exceptions are signalling: IEEE_OVERFLOW_FLAG
Note: The following floating-point exceptions are signalling: IEEE_OVERFLOW_FLAG
Note: The following floating-point exceptions are signalling: IEEE_OVERFLOW_FLAG
