   75   75   85    1
  0.2082215E+02  0.1053953E-08  0.6141200E-09  0.2412750E-08  0.5000000E-15
   1.0000000000000000E-004
  CAR 
 Name                                    
    285     23    184

  0.3742002E-15  0.3742002E-15  0.1262379E-14  0.2222222E-01
    1      -13.856675   1.000000
    2      -12.756270   1.000000
    3      -12.671278   1.000000
    4      -12.651745   1.000000
    5      -11.715017   1.000000
    6      -11.676765   1.000000
    7      -11.513838   1.000000
    8      -11.455751   1.000000
    9      -11.293434   1.000000
   10      -11.230985   1.000000
   11      -11.142548   1.000000
   12      -10.966672   1.000000
   13      -10.914001   1.000000
   14      -10.664005   1.000000
   15      -10.602444   1.000000
   16      -10.518523   1.000000
   17      -10.301622   1.000000
   18      -10.068304   1.000000
   19      -10.039821   1.000000
   20       -9.907638   1.000000
   21       -9.661185   1.000000
   22       -9.578867   1.000000
   23       -9.535082   1.000000
   24       -9.447477   1.000000
   25       -9.069047   1.000000
   26       -8.873091   1.000000
   27       -8.772483   1.000000
   28       -8.522319   1.000000
   29       -8.393870   1.000000
   30       -8.261081   1.000000
   31       -8.072526   1.000000
   32       -7.760562   1.000000
   33       -7.751552   1.000000
   34       -7.687346   1.000000
   35       -7.594735   1.000000
   36       -7.150511   1.000000
   37       -7.109668   1.000000
   38       -6.999120   1.000000
   39       -6.837470   1.000000
   40       -6.675567   1.000000
   41       -6.657005   1.000000
   42       -6.572982   1.000000
   43       -6.533075   1.000000
   44       -6.523382   1.000000
   45       -6.438891   1.000000
   46       -6.365752   1.000000
   47       -6.336491   1.000000
   48       -6.142855   1.000000
   49       -6.081524   1.000000
   50       -6.079573   1.000000
   51       -6.010589   1.000000
   52       -5.950336   1.000000
   53       -5.712963   1.000000
   54       -5.651467   1.000000
   55       -5.629012   1.000000
   56       -5.539879   1.000000
   57       -5.504383   1.000000
   58       -5.381225   1.000000
   59       -5.281818   1.000000
   60       -5.269891   1.000000
   61       -5.232999   1.000000
   62       -5.211593   1.000000
   63       -5.126606   1.000000
   64       -4.878255   1.000000
   65       -4.772907   1.000000
   66       -4.639298   1.000000
   67       -4.545077   1.000000
   68       -4.542378   1.000000
   69       -4.514669   1.000000
   70       -4.391769   1.000000
   71       -4.294101   1.000000
   72       -4.247176   1.000000
   73       -4.113033   1.000000
   74       -4.112726   1.000000
   75       -4.105160   1.000000
   76       -4.099411   1.000000
   77       -4.053219   1.000000
   78       -4.005163   1.000000
   79       -3.942999   1.000000
   80       -3.861940   1.000000
   81       -3.840521   1.000000
   82       -3.836028   1.000000
   83       -3.777872   1.000000
   84       -3.750438   1.000000
   85       -3.713741   1.000000
   86       -3.603271   1.000000
   87       -3.586040   1.000000
   88       -3.537693   1.000000
   89       -3.482592   1.000000
   90       -3.447320   1.000000
   91       -3.435140   1.000000
   92       -3.245696   1.000000
   93       -3.242513   1.000000
   94       -3.081402   1.000000
   95       -3.042005   1.000000
   96       -3.028826   1.000000
   97       -2.884026   1.000000
   98       -2.851296   1.000000
   99       -2.734688   1.000000
  100       -2.684298   1.000000
  101       -2.568463   1.000000
  102       -2.486701   1.000000
  103       -2.464504   1.000000
  104       -2.312772   1.000000
  105       -2.284069   1.000000
  106       -2.274062   1.000000
  107       -2.221134   1.000000
  108       -2.138684   1.000000
  109       -2.092546   1.000000
  110       -2.030882   1.000000
  111       -1.946374   1.000000
  112       -1.864602   1.000000
  113       -1.816945   1.000000
  114       -1.766359   1.000000
  115       -1.752212   1.000000
  116       -1.709582   1.000000
  117       -1.636041   1.000000
  118       -1.613368   1.000000
  119       -1.596240   1.000000
  120       -1.573119   1.000000
  121       -1.410522   1.000000
  122       -1.091068   1.000000
  123       -0.925939   1.000000
  124       -0.922774   1.000000
  125       -0.917181   1.000000
  126       -0.845465   1.000000
  127       -0.647312   1.000000
  128       -0.458338   1.000000
  129       -0.424919   1.000000
  130       -0.312395   1.000000
  131       -0.147709   1.000000
  132       -0.112624   1.000000
  133       -0.079976   1.000000
  134        0.039722   1.000000
  135        0.089018   1.000000
  136        0.309257   1.000586
  137        0.310180   1.000612
  138        0.399000   1.016443
  139        0.416646   1.024311
  140        0.439591   1.033614
  141        0.455449   1.035202
  142        0.523412   0.873068
  143        0.569240   0.539861
  144        0.658974  -0.001794
  145        0.674554  -0.025737
  146        0.690764  -0.034924
  147        0.760368  -0.012091
  148        0.764113  -0.010844
  149        0.899361  -0.000021
  150        0.926999  -0.000004
  151        1.108676  -0.000000
  152        1.140733  -0.000000
  153        1.175972  -0.000000
  154        1.262958  -0.000000
  155        1.295797  -0.000000
  156        1.347433  -0.000000
  157        1.375480  -0.000000
  158        1.416647  -0.000000
  159        1.429791  -0.000000
  160        1.478606  -0.000000
  161        1.494905  -0.000000
  162        1.528930  -0.000000
  163        1.566173  -0.000000
  164        1.584413  -0.000000
  165        1.678726  -0.000000
  166        1.716131  -0.000000
  167        1.789557  -0.000000
  168        1.822910  -0.000000
  169        1.825643  -0.000000
  170        1.851273  -0.000000
  171        1.867469  -0.000000
  172        1.877070  -0.000000
  173        1.939396  -0.000000
  174        1.954062  -0.000000
  175        2.015284  -0.000000
  176        2.033230  -0.000000
  177        2.094646  -0.000000
  178        2.108838  -0.000000
  179        2.163549  -0.000000
  180        2.245996  -0.000000
  181        2.247213  -0.000000
  182        2.331182  -0.000000
  183        2.373112  -0.000000
  184        2.426053  -0.000000

  0.2000000E+00  0.3742002E-15  0.1262379E-14  0.4444444E-01
    1      -13.808339   1.000000
    2      -13.106274   1.000000
    3      -12.636054   1.000000
    4      -12.226668   1.000000
    5      -11.986779   1.000000
    6      -11.667232   1.000000
    7      -11.509676   1.000000
    8      -11.248749   1.000000
    9      -11.219555   1.000000
   10      -11.166282   1.000000
   11      -11.121697   1.000000
   12      -11.004711   1.000000
   13      -10.844367   1.000000
   14      -10.701093   1.000000
   15      -10.637088   1.000000
   16      -10.598067   1.000000
   17      -10.501497   1.000000
   18      -10.303423   1.000000
   19      -10.049198   1.000000
   20       -9.956593   1.000000
   21       -9.593070   1.000000
   22       -9.452144   1.000000
   23       -9.428783   1.000000
   24       -9.320511   1.000000
   25       -9.174382   1.000000
   26       -9.038764   1.000000
   27       -8.569838   1.000000
   28       -8.428377   1.000000
   29       -8.268486   1.000000
   30       -8.230461   1.000000
   31       -8.058747   1.000000
   32       -8.008061   1.000000
   33       -7.652950   1.000000
   34       -7.604258   1.000000
   35       -7.534408   1.000000
   36       -7.337149   1.000000
   37       -7.157999   1.000000
   38       -7.077361   1.000000
   39       -7.016636   1.000000
   40       -6.747162   1.000000
   41       -6.694185   1.000000
   42       -6.647642   1.000000
   43       -6.602778   1.000000
   44       -6.512474   1.000000
   45       -6.493712   1.000000
   46       -6.303079   1.000000
   47       -6.118364   1.000000
   48       -6.101215   1.000000
   49       -6.072947   1.000000
   50       -5.996727   1.000000
   51       -5.924483   1.000000
   52       -5.848669   1.000000
   53       -5.769615   1.000000
   54       -5.684940   1.000000
   55       -5.538522   1.000000
   56       -5.476802   1.000000
   57       -5.436133   1.000000
   58       -5.382248   1.000000
   59       -5.288507   1.000000
   60       -5.272870   1.000000
   61       -5.247127   1.000000
   62       -5.195767   1.000000
   63       -5.117224   1.000000
   64       -5.037654   1.000000
   65       -4.700547   1.000000
   66       -4.669638   1.000000
   67       -4.578618   1.000000
   68       -4.569341   1.000000
   69       -4.524195   1.000000
   70       -4.446014   1.000000
   71       -4.262088   1.000000
   72       -4.238647   1.000000
   73       -4.183766   1.000000
   74       -4.113306   1.000000
   75       -4.081892   1.000000
   76       -4.063414   1.000000
   77       -4.008094   1.000000
   78       -3.963014   1.000000
   79       -3.931921   1.000000
   80       -3.878751   1.000000
   81       -3.870293   1.000000
   82       -3.837138   1.000000
   83       -3.830961   1.000000
   84       -3.741162   1.000000
   85       -3.687885   1.000000
   86       -3.583044   1.000000
   87       -3.562943   1.000000
   88       -3.513798   1.000000
   89       -3.483175   1.000000
   90       -3.438928   1.000000
   91       -3.420984   1.000000
   92       -3.318375   1.000000
   93       -3.231713   1.000000
   94       -3.158088   1.000000
   95       -3.085514   1.000000
   96       -3.015731   1.000000
   97       -2.940318   1.000000
   98       -2.877938   1.000000
   99       -2.793913   1.000000
  100       -2.681018   1.000000
  101       -2.620552   1.000000
  102       -2.596331   1.000000
  103       -2.326476   1.000000
  104       -2.277181   1.000000
  105       -2.241630   1.000000
  106       -2.181558   1.000000
  107       -2.172991   1.000000
  108       -2.127571   1.000000
  109       -2.093975   1.000000
  110       -1.962378   1.000000
  111       -1.931813   1.000000
  112       -1.885433   1.000000
  113       -1.836309   1.000000
  114       -1.770832   1.000000
  115       -1.706676   1.000000
  116       -1.634646   1.000000
  117       -1.622418   1.000000
  118       -1.600172   1.000000
  119       -1.516606   1.000000
  120       -1.438011   1.000000
  121       -1.384422   1.000000
  122       -1.111628   1.000000
  123       -1.051201   1.000000
  124       -0.996947   1.000000
  125       -0.951659   1.000000
  126       -0.833763   1.000000
  127       -0.719463   1.000000
  128       -0.464486   1.000000
  129       -0.462721   1.000000
  130       -0.432709   1.000000
  131       -0.365534   1.000000
  132       -0.186103   1.000000
  133       -0.094456   1.000000
  134       -0.039625   1.000000
  135        0.045466   1.000000
  136        0.157846   1.000000
  137        0.246681   1.000019
  138        0.409447   1.020996
  139        0.428114   1.029460
  140        0.472218   1.026838
  141        0.475221   1.023764
  142        0.607697   0.231680
  143        0.687722  -0.034146
  144        0.719185  -0.029716
  145        0.759662  -0.012336
  146        0.792390  -0.004215
  147        0.798749  -0.003313
  148        0.805123  -0.002576
  149        0.818844  -0.001451
  150        0.855506  -0.000252
  151        1.097281  -0.000000
  152        1.203045  -0.000000
  153        1.217129  -0.000000
  154        1.300700  -0.000000
  155        1.320529  -0.000000
  156        1.372055  -0.000000
  157        1.389240  -0.000000
  158        1.423276  -0.000000
  159        1.456940  -0.000000
  160        1.514695  -0.000000
  161        1.560579  -0.000000
  162        1.574941  -0.000000
  163        1.600620  -0.000000
  164        1.635015  -0.000000
  165        1.654884  -0.000000
  166        1.690197  -0.000000
  167        1.783099  -0.000000
  168        1.801840  -0.000000
  169        1.833089  -0.000000
  170        1.869969  -0.000000
  171        1.905192  -0.000000
  172        1.952084  -0.000000
  173        1.966633  -0.000000
  174        2.019168  -0.000000
  175        2.036621  -0.000000
  176        2.039542  -0.000000
  177        2.093317  -0.000000
  178        2.115970  -0.000000
  179        2.167436  -0.000000
  180        2.202656  -0.000000
  181        2.231645  -0.000000
  182        2.303577  -0.000000
  183        2.337625  -0.000000
  184        2.389136  -0.000000

  0.4000000E+00  0.3742002E-15  0.1262379E-14  0.4444444E-01
    1      -13.664578   1.000000
    2      -13.428050   1.000000
    3      -12.508217   1.000000
    4      -12.282627   1.000000
    5      -11.688948   1.000000
    6      -11.635538   1.000000
    7      -11.582131   1.000000
    8      -11.196422   1.000000
    9      -11.141379   1.000000
   10      -11.129145   1.000000
   11      -11.033370   1.000000
   12      -10.987630   1.000000
   13      -10.940257   1.000000
   14      -10.832959   1.000000
   15      -10.748462   1.000000
   16      -10.642008   1.000000
   17      -10.554680   1.000000
   18      -10.345438   1.000000
   19      -10.227988   1.000000
   20       -9.987057   1.000000
   21       -9.737105   1.000000
   22       -9.403973   1.000000
   23       -9.385240   1.000000
   24       -9.209728   1.000000
   25       -9.135298   1.000000
   26       -8.894334   1.000000
   27       -8.401296   1.000000
   28       -8.353020   1.000000
   29       -8.238685   1.000000
   30       -8.106870   1.000000
   31       -8.066963   1.000000
   32       -7.818310   1.000000
   33       -7.776789   1.000000
   34       -7.629035   1.000000
   35       -7.615083   1.000000
   36       -7.505556   1.000000
   37       -7.318999   1.000000
   38       -7.284135   1.000000
   39       -7.089107   1.000000
   40       -6.971371   1.000000
   41       -6.807229   1.000000
   42       -6.527090   1.000000
   43       -6.459257   1.000000
   44       -6.451787   1.000000
   45       -6.368486   1.000000
   46       -6.347571   1.000000
   47       -6.245339   1.000000
   48       -6.071885   1.000000
   49       -6.006280   1.000000
   50       -5.905387   1.000000
   51       -5.885826   1.000000
   52       -5.766709   1.000000
   53       -5.756330   1.000000
   54       -5.635874   1.000000
   55       -5.556881   1.000000
   56       -5.542210   1.000000
   57       -5.441337   1.000000
   58       -5.395540   1.000000
   59       -5.249700   1.000000
   60       -5.212005   1.000000
   61       -5.173092   1.000000
   62       -5.056538   1.000000
   63       -4.978356   1.000000
   64       -4.874661   1.000000
   65       -4.768728   1.000000
   66       -4.754264   1.000000
   67       -4.710981   1.000000
   68       -4.628528   1.000000
   69       -4.554812   1.000000
   70       -4.527817   1.000000
   71       -4.342096   1.000000
   72       -4.318828   1.000000
   73       -4.213207   1.000000
   74       -4.159630   1.000000
   75       -4.100839   1.000000
   76       -4.044484   1.000000
   77       -4.014840   1.000000
   78       -3.941968   1.000000
   79       -3.855205   1.000000
   80       -3.838058   1.000000
   81       -3.797783   1.000000
   82       -3.774941   1.000000
   83       -3.768346   1.000000
   84       -3.720635   1.000000
   85       -3.708018   1.000000
   86       -3.603141   1.000000
   87       -3.586323   1.000000
   88       -3.548844   1.000000
   89       -3.464743   1.000000
   90       -3.378896   1.000000
   91       -3.349740   1.000000
   92       -3.326482   1.000000
   93       -3.291912   1.000000
   94       -3.264476   1.000000
   95       -3.178779   1.000000
   96       -3.073311   1.000000
   97       -3.015442   1.000000
   98       -2.940053   1.000000
   99       -2.829381   1.000000
  100       -2.809135   1.000000
  101       -2.684489   1.000000
  102       -2.418932   1.000000
  103       -2.359051   1.000000
  104       -2.280623   1.000000
  105       -2.218883   1.000000
  106       -2.190766   1.000000
  107       -2.119776   1.000000
  108       -1.988756   1.000000
  109       -1.948421   1.000000
  110       -1.938135   1.000000
  111       -1.931493   1.000000
  112       -1.829098   1.000000
  113       -1.738718   1.000000
  114       -1.695362   1.000000
  115       -1.687342   1.000000
  116       -1.673118   1.000000
  117       -1.503020   1.000000
  118       -1.429256   1.000000
  119       -1.384880   1.000000
  120       -1.308605   1.000000
  121       -1.258550   1.000000
  122       -1.189019   1.000000
  123       -1.173229   1.000000
  124       -1.109211   1.000000
  125       -1.048268   1.000000
  126       -0.871212   1.000000
  127       -0.791119   1.000000
  128       -0.770423   1.000000
  129       -0.746404   1.000000
  130       -0.541618   1.000000
  131       -0.466149   1.000000
  132       -0.419120   1.000000
  133       -0.098539   1.000000
  134       -0.051812   1.000000
  135        0.053692   1.000000
  136        0.088668   1.000000
  137        0.337655   1.002089
  138        0.366561   1.006250
  139        0.385895   1.011531
  140        0.390527   1.013148
  141        0.456936   1.034965
  142        0.580844   0.441862
  143        0.683157  -0.032230
  144        0.779105  -0.006745
  145        0.790825  -0.004465
  146        0.801476  -0.002978
  147        0.827461  -0.000989
  148        0.866698  -0.000139
  149        1.010276  -0.000000
  150        1.035631  -0.000000
  151        1.056606  -0.000000
  152        1.173087  -0.000000
  153        1.209334  -0.000000
  154        1.324333  -0.000000
  155        1.407220  -0.000000
  156        1.451293  -0.000000
  157        1.472584  -0.000000
  158        1.499932  -0.000000
  159        1.581281  -0.000000
  160        1.609012  -0.000000
  161        1.617130  -0.000000
  162        1.644080  -0.000000
  163        1.650795  -0.000000
  164        1.699087  -0.000000
  165        1.713714  -0.000000
  166        1.720142  -0.000000
  167        1.751078  -0.000000
  168        1.754861  -0.000000
  169        1.829744  -0.000000
  170        1.880689  -0.000000
  171        1.907836  -0.000000
  172        1.923530  -0.000000
  173        1.927617  -0.000000
  174        2.000050  -0.000000
  175        2.041074  -0.000000
  176        2.078410  -0.000000
  177        2.086882  -0.000000
  178        2.115485  -0.000000
  179        2.149846  -0.000000
  180        2.167353  -0.000000
  181        2.221068  -0.000000
  182        2.231043  -0.000000
  183        2.376720  -0.000000
  184        2.440152  -0.000000

  0.3742002E-15  0.1111111E+00  0.1262379E-14  0.4444444E-01
    1      -13.809691   1.000000
    2      -12.716107   1.000000
    3      -12.631763   1.000000
    4      -12.618626   1.000000
    5      -11.783546   1.000000
    6      -11.680804   1.000000
    7      -11.495758   1.000000
    8      -11.487947   1.000000
    9      -11.332152   1.000000
   10      -11.222655   1.000000
   11      -11.177538   1.000000
   12      -10.971055   1.000000
   13      -10.924522   1.000000
   14      -10.683893   1.000000
   15      -10.581541   1.000000
   16      -10.519046   1.000000
   17      -10.298034   1.000000
   18      -10.049468   1.000000
   19      -10.008081   1.000000
   20       -9.900782   1.000000
   21       -9.634900   1.000000
   22       -9.570430   1.000000
   23       -9.559576   1.000000
   24       -9.468544   1.000000
   25       -9.069467   1.000000
   26       -8.856664   1.000000
   27       -8.795672   1.000000
   28       -8.550761   1.000000
   29       -8.379996   1.000000
   30       -8.243474   1.000000
   31       -7.937860   1.000000
   32       -7.808405   1.000000
   33       -7.774241   1.000000
   34       -7.671446   1.000000
   35       -7.624722   1.000000
   36       -7.236676   1.000000
   37       -7.210977   1.000000
   38       -6.971739   1.000000
   39       -6.816319   1.000000
   40       -6.629380   1.000000
   41       -6.611278   1.000000
   42       -6.577804   1.000000
   43       -6.535772   1.000000
   44       -6.532132   1.000000
   45       -6.442490   1.000000
   46       -6.352224   1.000000
   47       -6.323133   1.000000
   48       -6.148745   1.000000
   49       -6.086875   1.000000
   50       -6.064506   1.000000
   51       -6.004506   1.000000
   52       -5.929264   1.000000
   53       -5.738820   1.000000
   54       -5.654679   1.000000
   55       -5.577242   1.000000
   56       -5.515832   1.000000
   57       -5.455928   1.000000
   58       -5.397610   1.000000
   59       -5.311283   1.000000
   60       -5.199449   1.000000
   61       -5.178313   1.000000
   62       -5.165888   1.000000
   63       -5.111350   1.000000
   64       -4.882659   1.000000
   65       -4.704660   1.000000
   66       -4.688522   1.000000
   67       -4.572707   1.000000
   68       -4.538510   1.000000
   69       -4.466429   1.000000
   70       -4.403291   1.000000
   71       -4.295553   1.000000
   72       -4.245615   1.000000
   73       -4.160243   1.000000
   74       -4.152864   1.000000
   75       -4.112293   1.000000
   76       -4.087288   1.000000
   77       -4.062448   1.000000
   78       -4.031771   1.000000
   79       -3.977461   1.000000
   80       -3.943176   1.000000
   81       -3.903626   1.000000
   82       -3.844100   1.000000
   83       -3.823818   1.000000
   84       -3.795644   1.000000
   85       -3.761731   1.000000
   86       -3.654531   1.000000
   87       -3.587013   1.000000
   88       -3.566155   1.000000
   89       -3.447855   1.000000
   90       -3.435344   1.000000
   91       -3.425842   1.000000
   92       -3.338121   1.000000
   93       -3.212621   1.000000
   94       -3.104911   1.000000
   95       -3.044388   1.000000
   96       -2.866484   1.000000
   97       -2.834440   1.000000
   98       -2.831504   1.000000
   99       -2.731241   1.000000
  100       -2.637916   1.000000
  101       -2.539258   1.000000
  102       -2.484880   1.000000
  103       -2.469476   1.000000
  104       -2.400382   1.000000
  105       -2.379582   1.000000
  106       -2.296406   1.000000
  107       -2.182330   1.000000
  108       -2.128981   1.000000
  109       -2.096462   1.000000
  110       -2.021149   1.000000
  111       -1.999219   1.000000
  112       -1.976390   1.000000
  113       -1.848594   1.000000
  114       -1.797359   1.000000
  115       -1.777399   1.000000
  116       -1.702056   1.000000
  117       -1.623336   1.000000
  118       -1.577659   1.000000
  119       -1.501627   1.000000
  120       -1.475944   1.000000
  121       -1.430787   1.000000
  122       -1.168946   1.000000
  123       -1.027645   1.000000
  124       -0.992855   1.000000
  125       -0.837381   1.000000
  126       -0.753272   1.000000
  127       -0.612914   1.000000
  128       -0.542518   1.000000
  129       -0.518036   1.000000
  130       -0.326223   1.000000
  131       -0.202177   1.000000
  132       -0.179270   1.000000
  133       -0.080564   1.000000
  134        0.039158   1.000000
  135        0.120974   1.000000
  136        0.318445   1.000902
  137        0.345288   1.002847
  138        0.356861   1.004428
  139        0.382014   1.010281
  140        0.421475   1.026533
  141        0.424703   1.027983
  142        0.471704   1.027309
  143        0.494239   0.989320
  144        0.651509   0.016478
  145        0.683263  -0.032285
  146        0.694119  -0.035373
  147        0.812152  -0.001930
  148        0.859284  -0.000207
  149        0.896194  -0.000026
  150        1.081254  -0.000000
  151        1.138115  -0.000000
  152        1.179195  -0.000000
  153        1.208683  -0.000000
  154        1.255083  -0.000000
  155        1.329298  -0.000000
  156        1.345284  -0.000000
  157        1.368057  -0.000000
  158        1.402231  -0.000000
  159        1.447004  -0.000000
  160        1.530213  -0.000000
  161        1.539696  -0.000000
  162        1.549275  -0.000000
  163        1.576086  -0.000000
  164        1.590292  -0.000000
  165        1.671951  -0.000000
  166        1.702534  -0.000000
  167        1.786362  -0.000000
  168        1.806307  -0.000000
  169        1.817549  -0.000000
  170        1.836024  -0.000000
  171        1.881283  -0.000000
  172        1.903212  -0.000000
  173        1.919208  -0.000000
  174        1.933538  -0.000000
  175        2.008294  -0.000000
  176        2.008812  -0.000000
  177        2.039243  -0.000000
  178        2.065459  -0.000000
  179        2.111803  -0.000000
  180        2.121744  -0.000000
  181        2.186632  -0.000000
  182        2.314650  -0.000000
  183        2.327806  -0.000000
  184        2.484606  -0.000000

  0.2000000E+00  0.1111111E+00  0.1262379E-14  0.4444444E-01
    1      -13.761728   1.000000
    2      -13.065630   1.000000
    3      -12.596831   1.000000
    4      -12.194854   1.000000
    5      -11.953302   1.000000
    6      -11.768636   1.000000
    7      -11.565094   1.000000
    8      -11.241734   1.000000
    9      -11.225350   1.000000
   10      -11.205753   1.000000
   11      -11.107394   1.000000
   12      -11.022825   1.000000
   13      -10.843675   1.000000
   14      -10.705485   1.000000
   15      -10.627316   1.000000
   16      -10.595117   1.000000
   17      -10.476578   1.000000
   18      -10.317418   1.000000
   19      -10.043329   1.000000
   20       -9.938945   1.000000
   21       -9.571833   1.000000
   22       -9.452845   1.000000
   23       -9.443776   1.000000
   24       -9.315107   1.000000
   25       -9.175956   1.000000
   26       -9.024257   1.000000
   27       -8.603225   1.000000
   28       -8.434664   1.000000
   29       -8.269318   1.000000
   30       -8.223719   1.000000
   31       -8.066563   1.000000
   32       -7.870636   1.000000
   33       -7.687810   1.000000
   34       -7.649955   1.000000
   35       -7.533177   1.000000
   36       -7.397069   1.000000
   37       -7.181794   1.000000
   38       -7.013294   1.000000
   39       -7.004210   1.000000
   40       -6.747082   1.000000
   41       -6.724717   1.000000
   42       -6.639089   1.000000
   43       -6.593225   1.000000
   44       -6.514840   1.000000
   45       -6.482360   1.000000
   46       -6.391269   1.000000
   47       -6.210193   1.000000
   48       -6.108117   1.000000
   49       -6.023320   1.000000
   50       -5.956778   1.000000
   51       -5.848436   1.000000
   52       -5.835183   1.000000
   53       -5.763223   1.000000
   54       -5.680925   1.000000
   55       -5.531728   1.000000
   56       -5.452730   1.000000
   57       -5.417966   1.000000
   58       -5.391344   1.000000
   59       -5.271387   1.000000
   60       -5.234730   1.000000
   61       -5.197211   1.000000
   62       -5.163909   1.000000
   63       -5.070823   1.000000
   64       -5.018816   1.000000
   65       -4.702064   1.000000
   66       -4.642941   1.000000
   67       -4.585968   1.000000
   68       -4.525404   1.000000
   69       -4.493228   1.000000
   70       -4.447274   1.000000
   71       -4.279745   1.000000
   72       -4.243299   1.000000
   73       -4.187664   1.000000
   74       -4.135589   1.000000
   75       -4.101725   1.000000
   76       -4.077618   1.000000
   77       -4.070734   1.000000
   78       -3.989198   1.000000
   79       -3.979598   1.000000
   80       -3.960257   1.000000
   81       -3.910338   1.000000
   82       -3.876159   1.000000
   83       -3.826003   1.000000
   84       -3.782723   1.000000
   85       -3.689370   1.000000
   86       -3.664808   1.000000
   87       -3.615932   1.000000
   88       -3.576504   1.000000
   89       -3.470354   1.000000
   90       -3.408608   1.000000
   91       -3.383180   1.000000
   92       -3.309533   1.000000
   93       -3.217433   1.000000
   94       -3.162077   1.000000
   95       -3.080972   1.000000
   96       -2.960382   1.000000
   97       -2.918195   1.000000
   98       -2.794595   1.000000
   99       -2.753255   1.000000
  100       -2.695041   1.000000
  101       -2.665274   1.000000
  102       -2.569109   1.000000
  103       -2.394766   1.000000
  104       -2.333063   1.000000
  105       -2.257917   1.000000
  106       -2.212154   1.000000
  107       -2.181341   1.000000
  108       -2.124826   1.000000
  109       -2.109062   1.000000
  110       -1.977047   1.000000
  111       -1.940628   1.000000
  112       -1.873081   1.000000
  113       -1.811834   1.000000
  114       -1.793546   1.000000
  115       -1.773925   1.000000
  116       -1.700337   1.000000
  117       -1.629906   1.000000
  118       -1.588223   1.000000
  119       -1.489866   1.000000
  120       -1.437066   1.000000
  121       -1.361440   1.000000
  122       -1.217651   1.000000
  123       -1.124361   1.000000
  124       -0.999739   1.000000
  125       -0.857925   1.000000
  126       -0.842383   1.000000
  127       -0.715685   1.000000
  128       -0.688878   1.000000
  129       -0.422958   1.000000
  130       -0.355080   1.000000
  131       -0.245865   1.000000
  132       -0.152121   1.000000
  133       -0.038836   1.000000
  134        0.033892   1.000000
  135        0.088574   1.000000
  136        0.130341   1.000000
  137        0.206084   1.000001
  138        0.274038   1.000094
  139        0.372091   1.007524
  140        0.476782   1.021940
  141        0.500548   0.971211
  142        0.562583   0.595558
  143        0.591865   0.351099
  144        0.611021   0.208937
  145        0.700087  -0.035262
  146        0.732808  -0.023597
  147        0.757642  -0.013055
  148        0.943734  -0.000001
  149        0.982986  -0.000000
  150        1.020963  -0.000000
  151        1.136439  -0.000000
  152        1.174941  -0.000000
  153        1.216935  -0.000000
  154        1.315103  -0.000000
  155        1.347918  -0.000000
  156        1.412617  -0.000000
  157        1.437982  -0.000000