 running on   72 total cores
 distrk:  each k-point on   72 cores,    1 groups
 distr:  one band on    9 cores,    8 groups
 using from now: INCAR     
 vasp.5.4.4.18Apr17-6-g9f103f2a35 (build Dec  7 2020 12:43:57) complex           
 POSCAR found type information on POSCAR  Mo V  B  H 
 POSCAR found :  4 types and      75 ions
 scaLAPACK will be used
 LDA part: xc-table for Pade appr. of Perdew
 POSCAR, INCAR and KPOINTS ok, starting setup
 resort distribution
 resort distribution
 resort distribution
 resort distribution
 resort distribution
 resort distribution
 resort distribution
 resort distribution
 resort distribution
 resort distribution
 resort distribution
 resort distribution
 resort distribution
 resort distribution
 resort distribution
 resort distribution
 resort distribution
 resort distribution
 resort distribution
 resort distribution
 resort distribution
 resort distribution
 resort distribution
 resort distribution
 resort distribution
 resort distribution
 resort distribution
 resort distribution
 resort distribution
 resort distribution
 resort distribution
 resort distribution
 resort distribution
 resort distribution
 resort distribution
 resort distribution
 resort distribution
 resort distribution
 resort distribution
 resort distribution
 resort distribution
 resort distribution
 resort distribution
 resort distribution
 resort distribution
 resort distribution
 resort distribution
 resort distribution
 resort distribution
 resort distribution
 resort distribution
 resort distribution
 resort distribution
 resort distribution
 resort distribution
 resort distribution
 resort distribution
 resort distribution
 resort distribution
 resort distribution
 resort distribution
 resort distribution
 resort distribution
 resort distribution
 resort distribution
 resort distribution
 resort distribution
 resort distribution
 resort distribution
 resort distribution
 resort distribution
 resort distribution
 FFT: planning ...
 WAVECAR not read
 augmentation electrons   285.06516917105444     
 soft         electrons   0.0000000000000000     
 augmentation electrons   285.06516917105444     
 soft         electrons   0.0000000000000000     
 augmentation electrons   285.06516917105444     
 soft         electrons   0.0000000000000000     
 augmentation electrons   285.06516917105444     
 soft         electrons   0.0000000000000000     
 augmentation electrons   285.06516917105444     
 soft         electrons   0.0000000000000000     
 augmentation electrons   285.06516917105444     
 soft         electrons   0.0000000000000000     
 augmentation electrons   285.06516917105444     
 soft         electrons   0.0000000000000000     
 augmentation electrons   285.06516917105444     
 soft         electrons   0.0000000000000000     
 augmentation electrons   285.06516917105444     
 soft         electrons   0.0000000000000000     
 augmentation electrons   285.06516917105444     
 soft         electrons   0.0000000000000000     
 augmentation electrons   285.06516917105444     
 soft         electrons   0.0000000000000000     
 augmentation electrons   285.06516917105444     
 soft         electrons   0.0000000000000000     
 augmentation electrons   285.06516917105444     
 soft         electrons   0.0000000000000000     
 augmentation electrons   285.06516917105444     
 soft         electrons   0.0000000000000000     
 augmentation electrons   285.06516917105444     
 soft         electrons   0.0000000000000000     
 augmentation electrons   285.06516917105444     
 soft         electrons   0.0000000000000000     
 augmentation electrons   285.06516917105444     
 soft         electrons   0.0000000000000000     
 augmentation electrons   285.06516917105444     
 soft         electrons   0.0000000000000000     
 augmentation electrons   285.06516917105444     
 soft         electrons   0.0000000000000000     
 augmentation electrons   285.06516917105444     
 soft         electrons   0.0000000000000000     
 augmentation electrons   285.06516917105444     
 soft         electrons   0.0000000000000000     
 augmentation electrons   285.06516917105444     
 soft         electrons   0.0000000000000000     
 augmentation electrons   285.06516917105444     
 soft         electrons   0.0000000000000000     
 augmentation electrons   285.06516917105444     
 soft         electrons   0.0000000000000000     
 augmentation electrons   285.06516917105444     
 soft         electrons   0.0000000000000000     
 augmentation electrons   285.06516917105444     
 soft         electrons   0.0000000000000000     
 augmentation electrons   285.06516917105444     
 soft         electrons   0.0000000000000000     
 augmentation electrons   285.06516917105444     
 soft         electrons   0.0000000000000000     
 augmentation electrons   285.06516917105444     
 soft         electrons   0.0000000000000000     
 augmentation electrons   285.06516917105444     
 soft         electrons   0.0000000000000000     
 augmentation electrons   285.06516917105444     
 soft         electrons   0.0000000000000000     
 augmentation electrons   285.06516917105444     
 soft         electrons   0.0000000000000000     
 augmentation electrons   285.06516917105444     
 soft         electrons   0.0000000000000000     
 augmentation electrons   285.06516917105444     
 soft         electrons   0.0000000000000000     
 augmentation electrons   285.06516917105444     
 soft         electrons   0.0000000000000000     
 augmentation electrons   285.06516917105444     
 soft         electrons   0.0000000000000000     
 augmentation electrons   285.06516917105444     
 soft         electrons   0.0000000000000000     
 augmentation electrons   285.06516917105444     
 soft         electrons   0.0000000000000000     
 augmentation electrons   285.06516917105444     
 soft         electrons   0.0000000000000000     
 augmentation electrons   285.06516917105444     
 soft         electrons   0.0000000000000000     
 augmentation electrons   285.06516917105444     
 soft         electrons   0.0000000000000000     
 augmentation electrons   285.06516917105444     
 soft         electrons   0.0000000000000000     
 augmentation electrons   285.06516917105444     
 soft         electrons   0.0000000000000000     
 augmentation electrons   285.06516917105444     
 soft         electrons   0.0000000000000000     
 augmentation electrons   285.06516917105444     
 soft         electrons   0.0000000000000000     
 augmentation electrons   285.06516917105444     
 soft         electrons   0.0000000000000000     
 augmentation electrons   285.06516917105444     
 soft         electrons   0.0000000000000000     
 augmentation electrons   285.06516917105444     
 soft         electrons   0.0000000000000000     
 augmentation electrons   285.06516917105444     
 soft         electrons   0.0000000000000000     
 augmentation electrons   285.06516917105444     
 soft         electrons   0.0000000000000000     
 augmentation electrons   285.06516917105444     
 soft         electrons   0.0000000000000000     
 augmentation electrons   285.06516917105444     
 soft         electrons   0.0000000000000000     
 augmentation electrons   285.06516917105444     
 soft         electrons   0.0000000000000000     
 augmentation electrons   285.06516917105444     
 soft         electrons   0.0000000000000000     
 augmentation electrons   285.06516917105444     
 soft         electrons   0.0000000000000000     
 augmentation electrons   285.06516917105444     
 soft         electrons   0.0000000000000000     
 augmentation electrons   285.06516917105444     
 soft         electrons   0.0000000000000000     
 augmentation electrons   285.06516917105444     
 soft         electrons   0.0000000000000000     
 augmentation electrons   285.06516917105444     
 soft         electrons   0.0000000000000000     
 augmentation electrons   285.06516917105444     
 soft         electrons   0.0000000000000000     
 augmentation electrons   285.06516917105444     
 soft         electrons   0.0000000000000000     
 augmentation electrons   285.06516917105444     
 soft         electrons   0.0000000000000000     
 augmentation electrons   285.06516917105444     
 soft         electrons   0.0000000000000000     
 augmentation electrons   285.06516917105444     
 soft         electrons   0.0000000000000000     
 augmentation electrons   285.06516917105444     
 soft         electrons   0.0000000000000000     
 augmentation electrons   285.06516917105444     
 soft         electrons   0.0000000000000000     
 augmentation electrons   285.06516917105444     
 soft         electrons   0.0000000000000000     
 augmentation electrons   285.06516917105444     
 soft         electrons   0.0000000000000000     
 augmentation electrons   285.06516917105444     
 soft         electrons   0.0000000000000000     
 augmentation electrons   285.06516917105444     
 soft         electrons   0.0000000000000000     
 augmentation electrons   285.06516917105444     
 soft         electrons   0.0000000000000000     
 augmentation electrons   285.06516917105444     
 soft         electrons   0.0000000000000000     
 total        electrons   285.06516917105444     
 total        electrons   285.06516917105444     
 total        electrons   285.06516917105444     
 total        electrons   285.06516917105444     
 total        electrons   285.06516917105444     
 total        electrons   285.06516917105444     
 total        electrons   285.06516917105444     
 total        electrons   285.06516917105444     
 total        electrons   285.06516917105444     
 total        electrons   285.06516917105444     
 total        electrons   285.06516917105444     
 total        electrons   285.06516917105444     
 total        electrons   285.06516917105444     
 total        electrons   285.06516917105444     
 total        electrons   285.06516917105444     
 total        electrons   285.06516917105444     
 total        electrons   285.06516917105444     
 total        electrons   285.06516917105444     
 total        electrons   285.06516917105444     
 total        electrons   285.06516917105444     
 total        electrons   285.06516917105444     
 total        electrons   285.06516917105444     
 total        electrons   285.06516917105444     
 total        electrons   285.06516917105444     
 total        electrons   285.06516917105444     
 total        electrons   285.06516917105444     
 total        electrons   285.06516917105444     
 total        electrons   285.06516917105444     
 total        electrons   285.06516917105444     
 total        electrons   285.06516917105444     
 total        electrons   285.06516917105444     
 total        electrons   285.06516917105444     
 total        electrons   285.06516917105444     
 total        electrons   285.06516917105444     
 total        electrons   285.06516917105444     
 total        electrons   285.06516917105444     
 total        electrons   285.06516917105444     
 total        electrons   285.06516917105444     
 total        electrons   285.06516917105444     
 total        electrons   285.06516917105444     
 total        electrons   285.06516917105444     
 total        electrons   285.06516917105444     
 total        electrons   285.06516917105444     
 total        electrons   285.06516917105444     
 total        electrons   285.06516917105444     
 total        electrons   285.06516917105444     
 total        electrons   285.06516917105444     
 total        electrons   285.06516917105444     
 total        electrons   285.06516917105444     
 total        electrons   285.06516917105444     
 total        electrons   285.06516917105444     
 total        electrons   285.06516917105444     
 total        electrons   285.06516917105444     
 total        electrons   285.06516917105444     
 total        electrons   285.06516917105444     
 total        electrons   285.06516917105444     
 total        electrons   285.06516917105444     
 total        electrons   285.06516917105444     
 total        electrons   285.06516917105444     
 total        electrons   285.06516917105444     
 total        electrons   285.06516917105444     
 total        electrons   285.06516917105444     
 total        electrons   285.06516917105444     
 total        electrons   285.06516917105444     
 total        electrons   285.06516917105444     
 total        electrons   285.06516917105444     
 total        electrons   285.06516917105444     
 total        electrons   285.06516917105444     
 total        electrons   285.06516917105444     
 total        electrons   285.06516917105444     
 total        electrons   285.06516917105444     
 total        electrons   285.06516917105444     
 augmentation electrons   1284.9953543078657     
 soft         electrons   0.0000000000000000     
 augmentation electrons   1284.9953543078657     
 augmentation electrons   1284.9953543078657     
 soft         electrons   0.0000000000000000     
 augmentation electrons   1284.9953543078657     
 soft         electrons   0.0000000000000000     
 augmentation electrons   1284.9953543078657     
 soft         electrons   0.0000000000000000     
 augmentation electrons   1284.9953543078657     
 soft         electrons   0.0000000000000000     
 augmentation electrons   1284.9953543078657     
 soft         electrons   0.0000000000000000     
 augmentation electrons   1284.9953543078657     
 soft         electrons   0.0000000000000000     
 augmentation electrons   1284.9953543078657     
 soft         electrons   0.0000000000000000     
 augmentation electrons   1284.9953543078657     
 soft         electrons   0.0000000000000000     
 augmentation electrons   1284.9953543078657     
 soft         electrons   0.0000000000000000     
 augmentation electrons   1284.9953543078657     
 soft         electrons   0.0000000000000000     
 augmentation electrons   1284.9953543078657     
 soft         electrons   0.0000000000000000     
 augmentation electrons   1284.9953543078657     
 soft         electrons   0.0000000000000000     
 augmentation electrons   1284.9953543078657     
 soft         electrons   0.0000000000000000     
 augmentation electrons   1284.9953543078657     
 soft         electrons   0.0000000000000000     
 augmentation electrons   1284.9953543078657     
 soft         electrons   0.0000000000000000     
 augmentation electrons   1284.9953543078657     
 soft         electrons   0.0000000000000000     
 augmentation electrons   1284.9953543078657     
 soft         electrons   0.0000000000000000     
 augmentation electrons   1284.9953543078657     
 soft         electrons   0.0000000000000000     
 augmentation electrons   1284.9953543078657     
 soft         electrons   0.0000000000000000     
 augmentation electrons   1284.9953543078657     
 soft         electrons   0.0000000000000000     
 augmentation electrons   1284.9953543078657     
 soft         electrons   0.0000000000000000     
 augmentation electrons   1284.9953543078657     
 soft         electrons   0.0000000000000000     
 augmentation electrons   1284.9953543078657     
 soft         electrons   0.0000000000000000     
 augmentation electrons   1284.9953543078657     
 soft         electrons   0.0000000000000000     
 augmentation electrons   1284.9953543078657     
 soft         electrons   0.0000000000000000     
 augmentation electrons   1284.9953543078657     
 soft         electrons   0.0000000000000000     
 augmentation electrons   1284.9953543078657     
 soft         electrons   0.0000000000000000     
 augmentation electrons   1284.9953543078657     
 soft         electrons   0.0000000000000000     
 augmentation electrons   1284.9953543078657     
 soft         electrons   0.0000000000000000     
 augmentation electrons   1284.9953543078657     
 soft         electrons   0.0000000000000000     
 augmentation electrons   1284.9953543078657     
 soft         electrons   0.0000000000000000     
 augmentation electrons   1284.9953543078657     
 soft         electrons   0.0000000000000000     
 augmentation electrons   1284.9953543078657     
 soft         electrons   0.0000000000000000     
 augmentation electrons   1284.9953543078657     
 soft         electrons   0.0000000000000000     
 augmentation electrons   1284.9953543078657     
 soft         electrons   0.0000000000000000     
 augmentation electrons   1284.9953543078657     
 soft         electrons   0.0000000000000000     
 augmentation electrons   1284.9953543078657     
 soft         electrons   0.0000000000000000     
 augmentation electrons   1284.9953543078657     
 soft         electrons   0.0000000000000000     
 augmentation electrons   1284.9953543078657     
 soft         electrons   0.0000000000000000     
 augmentation electrons   1284.9953543078657     
 soft         electrons   0.0000000000000000     
 augmentation electrons   1284.9953543078657     
 soft         electrons   0.0000000000000000     
 augmentation electrons   1284.9953543078657     
 soft         electrons   0.0000000000000000     
 augmentation electrons   1284.9953543078657     
 soft         electrons   0.0000000000000000     
 augmentation electrons   1284.9953543078657     
 soft         electrons   0.0000000000000000     
 augmentation electrons   1284.9953543078657     
 soft         electrons   0.0000000000000000     
 augmentation electrons   1284.9953543078657     
 soft         electrons   0.0000000000000000     
 augmentation electrons   1284.9953543078657     
 soft         electrons   0.0000000000000000     
 augmentation electrons   1284.9953543078657     
 soft         electrons   0.0000000000000000     
 augmentation electrons   1284.9953543078657     
 soft         electrons   0.0000000000000000     
 augmentation electrons   1284.9953543078657     
 soft         electrons   0.0000000000000000     
 augmentation electrons   1284.9953543078657     
 soft         electrons   0.0000000000000000     
 augmentation electrons   1284.9953543078657     
 soft         electrons   0.0000000000000000     
 augmentation electrons   1284.9953543078657     
 soft         electrons   0.0000000000000000     
 augmentation electrons   1284.9953543078657     
 soft         electrons   0.0000000000000000     
 augmentation electrons   1284.9953543078657     
 soft         electrons   0.0000000000000000     
 augmentation electrons   1284.9953543078657     
 soft         electrons   0.0000000000000000     
 augmentation electrons   1284.9953543078657     
 soft         electrons   0.0000000000000000     
 augmentation electrons   1284.9953543078657     
 soft         electrons   0.0000000000000000     
 augmentation electrons   1284.9953543078657     
 soft         electrons   0.0000000000000000     
 augmentation electrons   1284.9953543078657     
 soft         electrons   0.0000000000000000     
 augmentation electrons   1284.9953543078657     
 soft         electrons   0.0000000000000000     
 augmentation electrons   1284.9953543078657     
 soft         electrons   0.0000000000000000     
 augmentation electrons   1284.9953543078657     
 soft         electrons   0.0000000000000000     
 augmentation electrons   1284.9953543078657     
 soft         electrons   0.0000000000000000     
 augmentation electrons   1284.9953543078657     
 soft         electrons   0.0000000000000000     
 augmentation electrons   1284.9953543078657     
 soft         electrons   0.0000000000000000     
 augmentation electrons   1284.9953543078657     
 soft         electrons   0.0000000000000000     
 augmentation electrons   1284.9953543078657     
 soft         electrons   0.0000000000000000     
 augmentation electrons   1284.9953543078657     
 soft         electrons   0.0000000000000000     
 augmentation electrons   1284.9953543078657     
 soft         electrons   0.0000000000000000     
 soft         electrons   0.0000000000000000     
 total        electrons   1284.9953543078657     
 total        electrons   1284.9953543078657     
 total        electrons   1284.9953543078657     
 total        electrons   1284.9953543078657     
 total        electrons   1284.9953543078657     
 total        electrons   1284.9953543078657     
 total        electrons   1284.9953543078657     
 total        electrons   1284.9953543078657     
 total        electrons   1284.9953543078657     
 total        electrons   1284.9953543078657     
 total        electrons   1284.9953543078657     
 total        electrons   1284.9953543078657     
 total        electrons   1284.9953543078657     
 total        electrons   1284.9953543078657     
 total        electrons   1284.9953543078657     
 total        electrons   1284.9953543078657     
 total        electrons   1284.9953543078657     
 total        electrons   1284.9953543078657     
 total        electrons   1284.9953543078657     
 total        electrons   1284.9953543078657     
 total        electrons   1284.9953543078657     
 total        electrons   1284.9953543078657     
 total        electrons   1284.9953543078657     
 total        electrons   1284.9953543078657     
 total        electrons   1284.9953543078657     
 total        electrons   1284.9953543078657     
 total        electrons   1284.9953543078657     
 total        electrons   1284.9953543078657     
 total        electrons   1284.9953543078657     
 total        electrons   1284.9953543078657     
 total        electrons   1284.9953543078657     
 total        electrons   1284.9953543078657     
 total        electrons   1284.9953543078657     
 total        electrons   1284.9953543078657     
 total        electrons   1284.9953543078657     
 total        electrons   1284.9953543078657     
 total        electrons   1284.9953543078657     
 total        electrons   1284.9953543078657     
 total        electrons   1284.9953543078657     
 total        electrons   1284.9953543078657     
 total        electrons   1284.9953543078657     
 total        electrons   1284.9953543078657     
 total        electrons   1284.9953543078657     
 total        electrons   1284.9953543078657     
 total        electrons   1284.9953543078657     
 total        electrons   1284.9953543078657     
 total        electrons   1284.9953543078657     
 total        electrons   1284.9953543078657     
 total        electrons   1284.9953543078657     
 total        electrons   1284.9953543078657     
 total        electrons   1284.9953543078657     
 total        electrons   1284.9953543078657     
 total        electrons   1284.9953543078657     
 total        electrons   1284.9953543078657     
 total        electrons   1284.9953543078657     
 total        electrons   1284.9953543078657     
 total        electrons   1284.9953543078657     
 total        electrons   1284.9953543078657     
 total        electrons   1284.9953543078657     
 total        electrons   1284.9953543078657     
 total        electrons   1284.9953543078657     
 total        electrons   1284.9953543078657     
 total        electrons   1284.9953543078657     
 total        electrons   1284.9953543078657     
 total        electrons   1284.9953543078657     
 total        electrons   1284.9953543078657     
 total        electrons   1284.9953543078657     
 total        electrons   1284.9953543078657     
 total        electrons   1284.9953543078657     
 total        electrons   1284.9953543078657     
 total        electrons   1284.9953543078657     
 total        electrons   1284.9953543078657     
 entering main loop
       N       E                     dE             d eps       ncg     rms          rms(c)
DAV:   1     0.247431702093E+04    0.24743E+04   -0.10369E+05  8464   0.127E+03
DAV:   2    -0.212084285493E+03   -0.26864E+04   -0.24952E+04  9648   0.316E+02
DAV:   3    -0.656572164330E+03   -0.44449E+03   -0.42163E+03 11888   0.147E+02
DAV:   4    -0.695263404887E+03   -0.38691E+02   -0.36882E+02 13728   0.474E+01
DAV:   5    -0.697848255718E+03   -0.25849E+01   -0.24849E+01 14376   0.114E+01    0.147E+02
RMM:   6    -0.646752288827E+03    0.51096E+02   -0.11489E+03 11623   0.880E+01    0.718E+01
RMM:   7    -0.744420045847E+03   -0.97668E+02   -0.37816E+02 11772   0.400E+01    0.551E+01
RMM:   8    -0.643644488111E+03    0.10078E+03   -0.15858E+02 11232   0.254E+01    0.394E+01
RMM:   9    -0.608581354649E+03    0.35063E+02   -0.40390E+01 10926   0.161E+01    0.278E+01
RMM:  10    -0.595819527693E+03    0.12762E+02   -0.29538E+01  9439   0.155E+01    0.203E+01
RMM:  11    -0.594372289128E+03    0.14472E+01   -0.75951E+00  9992   0.738E+00    0.164E+01
RMM:  12    -0.594382890384E+03   -0.10601E-01   -0.26794E+00 11485   0.222E+00    0.148E+01
RMM:  13    -0.594126686599E+03    0.25620E+00   -0.71315E-01  9954   0.204E+00    0.131E+01
RMM:  14    -0.594282625426E+03   -0.15594E+00   -0.36526E+00  9433   0.567E+00    0.962E+00
RMM:  15    -0.593326086227E+03    0.95654E+00   -0.15818E+00  8965   0.437E+00    0.423E+00
RMM:  16    -0.593112450534E+03    0.21364E+00   -0.18811E+00 11347   0.222E+00    0.231E+00
RMM:  17    -0.593130296961E+03   -0.17846E-01   -0.44535E-01 11454   0.125E+00    0.230E+00
RMM:  18    -0.593112346856E+03    0.17950E-01   -0.17510E-01 10767   0.104E+00    0.149E+00
RMM:  19    -0.593102065785E+03    0.10281E-01   -0.13270E-01  9646   0.835E-01    0.103E+00
RMM:  20    -0.593096403933E+03    0.56619E-02   -0.50795E-02 10255   0.525E-01    0.784E-01
RMM:  21    -0.593088521967E+03    0.78820E-02   -0.16341E-02  9754   0.357E-01    0.270E-01
RMM:  22    -0.593090671805E+03   -0.21498E-02   -0.14380E-02 11537   0.185E-01    0.370E-01
RMM:  23    -0.593090772041E+03   -0.10024E-03   -0.74596E-03  8560   0.273E-01    0.185E-01
RMM:  24    -0.593091412037E+03   -0.64000E-03   -0.24228E-03 10097   0.118E-01    0.107E-01
RMM:  25    -0.593092243553E+03   -0.83152E-03   -0.17176E-03 10285   0.756E-02    0.981E-02
RMM:  26    -0.593092873433E+03   -0.62988E-03   -0.84202E-04  9315   0.729E-02    0.120E-01
RMM:  27    -0.593093895135E+03   -0.10217E-02   -0.93192E-04  9155   0.907E-02    0.730E-02
RMM:  28    -0.593094350212E+03   -0.45508E-03   -0.44587E-04 10243   0.446E-02    0.441E-02
RMM:  29    -0.593094562722E+03   -0.21251E-03   -0.21252E-04 11074   0.219E-02    0.178E-02
RMM:  30    -0.593094705717E+03   -0.14299E-03   -0.10207E-04  9391   0.217E-02    0.320E-02
RMM:  31    -0.593094779567E+03   -0.73850E-04   -0.37125E-05  8330   0.142E-02    0.880E-03
RMM:  32    -0.593094943331E+03   -0.16376E-03   -0.25461E-05  7575   0.600E-03    0.105E-02
RMM:  33    -0.593095016953E+03   -0.73622E-04   -0.99723E-06  6785   0.591E-03    0.606E-03
RMM:  34    -0.593095115891E+03   -0.98938E-04   -0.61511E-06  6401   0.445E-03    0.663E-03
RMM:  35    -0.593095281295E+03   -0.16540E-03   -0.10791E-05  6540   0.562E-03    0.748E-03
RMM:  36    -0.593095364652E+03   -0.83357E-04   -0.12525E-05  7145   0.737E-03    0.890E-03
RMM:  37    -0.593095397818E+03   -0.33167E-04   -0.59982E-06  6258   0.822E-03    0.466E-03
RMM:  38    -0.593095420194E+03   -0.22376E-04   -0.34420E-06  5905   0.469E-03    0.459E-03
RMM:  39    -0.593095429888E+03   -0.96935E-05   -0.16075E-06  5502   0.396E-03    0.266E-03
RMM:  40    -0.593095436125E+03   -0.62370E-05   -0.10007E-06  5220   0.275E-03    0.206E-03
RMM:  41    -0.593095438514E+03   -0.23893E-05   -0.61358E-07  4983   0.220E-03    0.101E-03
RMM:  42    -0.593095439678E+03   -0.11644E-05   -0.32763E-07  4890   0.165E-03    0.628E-04
RMM:  43    -0.593095440809E+03   -0.11302E-05   -0.23721E-07  3572   0.114E-03    0.344E-04
RMM:  44    -0.593095441311E+03   -0.50206E-06   -0.14855E-07  3279   0.975E-04
   1 F= -.59309544E+03 E0= -.59309530E+03  d E =-.593095E+03
 curvature:   0.00 expect dE= 0.000E+00 dE for cont linesearch  0.000E+00
 trial: gam= 0.00000 g(F)=  0.541E-04 g(S)=  0.000E+00 ort = 0.000E+00 (trialstep = 0.100E+01)
 search vector abs. value=  0.541E-04
 bond charge predicted
       N       E                     dE             d eps       ncg     rms          rms(c)
DAV:   1    -0.593095480863E+03   -0.40055E-04   -0.85598E-04  9424   0.575E-02    0.757E-03
RMM:   2    -0.593095482348E+03   -0.14847E-05   -0.20466E-05  7431   0.106E-02    0.527E-03
RMM:   3    -0.593095486005E+03   -0.36567E-05   -0.46565E-06  6231   0.701E-03    0.148E-02
RMM:   4    -0.593095482590E+03    0.34148E-05   -0.19751E-06  5470   0.586E-03    0.333E-03
RMM:   5    -0.593095482650E+03   -0.60254E-07   -0.90951E-07  5106   0.370E-03
   2 F= -.59309548E+03 E0= -.59309534E+03  d E =-.413396E-04
 trial-energy change:   -0.000041  1 .order   -0.000041   -0.000054   -0.000027
 step:   2.0218(harm=  2.0218)  dis= 0.00282  next Energy=  -593.095496 (dE=-0.547E-04)
 reached required accuracy - stopping structural energy minimisation
 augmentation electrons   31.552509442589447     
 soft         electrons   253.57511444972562     
 augmentation electrons   31.552509442589447     
 soft         electrons   253.57511444972562     
 augmentation electrons   31.552509442589447     
 soft         electrons   253.57511444972562     
 augmentation electrons   31.552509442589447     
 soft         electrons   253.57511444972562     
 augmentation electrons   31.552509442589447     
 soft         electrons   253.57511444972562     
 augmentation electrons   31.552509442589447     
 soft         electrons   253.57511444972562     
 augmentation electrons   31.552509442589447     
 soft         electrons   253.57511444972562     
 augmentation electrons   31.552509442589447     
 soft         electrons   253.57511444972562     
 augmentation electrons   31.552509442589447     
 soft         electrons   253.57511444972562     
 augmentation electrons   31.552509442589447     
 soft         electrons   253.57511444972562     
 augmentation electrons   31.552509442589447     
 soft         electrons   253.57511444972562     
 augmentation electrons   31.552509442589447     
 soft         electrons   253.57511444972562     
 augmentation electrons   31.552509442589447     
 soft         electrons   253.57511444972562     
 augmentation electrons   31.552509442589447     
 soft         electrons   253.57511444972562     
 augmentation electrons   31.552509442589447     
 soft         electrons   253.57511444972562     
 augmentation electrons   31.552509442589447     
 soft         electrons   253.57511444972562     
 augmentation electrons   31.552509442589447     
 soft         electrons   253.57511444972562     
 augmentation electrons   31.552509442589447     
 soft         electrons   253.57511444972562     
 augmentation electrons   31.552509442589447     
 soft         electrons   253.57511444972562     
 augmentation electrons   31.552509442589447     
 soft         electrons   253.57511444972562     
 augmentation electrons   31.552509442589447     
 soft         electrons   253.57511444972562     
 augmentation electrons   31.552509442589447     
 soft         electrons   253.57511444972562     
 augmentation electrons   31.552509442589447     
 soft         electrons   253.57511444972562     
 augmentation electrons   31.552509442589447     
 soft         electrons   253.57511444972562     
 augmentation electrons   31.552509442589447     
 soft         electrons   253.57511444972562     
 augmentation electrons   31.552509442589447     
 soft         electrons   253.57511444972562     
 augmentation electrons   31.552509442589447     
 soft         electrons   253.57511444972562     
 augmentation electrons   31.552509442589447     
 soft         electrons   253.57511444972562     
 augmentation electrons   31.552509442589447     
 soft         electrons   253.57511444972562     
 augmentation electrons   31.552509442589447     
 soft         electrons   253.57511444972562     
 augmentation electrons   31.552509442589447     
 soft         electrons   253.57511444972562     
 augmentation electrons   31.552509442589447     
 soft         electrons   253.57511444972562     
 augmentation electrons   31.552509442589447     
 soft         electrons   253.57511444972562     
 augmentation electrons   31.552509442589447     
 soft         electrons   253.57511444972562     
 augmentation electrons   31.552509442589447     
 soft         electrons   253.57511444972562     
 augmentation electrons   31.552509442589447     
 soft         electrons   253.57511444972562     
 augmentation electrons   31.552509442589447     
 soft         electrons   253.57511444972562     
 augmentation electrons   31.552509442589447     
 soft         electrons   253.57511444972562     
 augmentation electrons   31.552509442589447     
 soft         electrons   253.57511444972562     
 augmentation electrons   31.552509442589447     
 soft         electrons   253.57511444972562     
 augmentation electrons   31.552509442589447     
 soft         electrons   253.57511444972562     
 augmentation electrons   31.552509442589447     
 soft         electrons   253.57511444972562     
 augmentation electrons   31.552509442589447     
 soft         electrons   253.57511444972562     
 augmentation electrons   31.552509442589447     
 soft         electrons   253.57511444972562     
 augmentation electrons   31.552509442589447     
 soft         electrons   253.57511444972562     
 augmentation electrons   31.552509442589447     
 soft         electrons   253.57511444972562     
 augmentation electrons   31.552509442589447     
 soft         electrons   253.57511444972562     
 augmentation electrons   31.552509442589447     
 soft         electrons   253.57511444972562     
 augmentation electrons   31.552509442589447     
 soft         electrons   253.57511444972562     
 augmentation electrons   31.552509442589447     
 soft         electrons   253.57511444972562     
 augmentation electrons   31.552509442589447     
 soft         electrons   253.57511444972562     
 augmentation electrons   31.552509442589447     
 soft         electrons   253.57511444972562     
 augmentation electrons   31.552509442589447     
 soft         electrons   253.57511444972562     
 augmentation electrons   31.552509442589447     
 soft         electrons   253.57511444972562     
 augmentation electrons   31.552509442589447     
 soft         electrons   253.57511444972562     
 augmentation electrons   31.552509442589447     
 soft         electrons   253.57511444972562     
 augmentation electrons   31.552509442589447     
 soft         electrons   253.57511444972562     
 augmentation electrons   31.552509442589447     
 soft         electrons   253.57511444972562     
 augmentation electrons   31.552509442589447     
 soft         electrons   253.57511444972562     
 augmentation electrons   31.552509442589447     
 soft         electrons   253.57511444972562     
 augmentation electrons   31.552509442589447     
 soft         electrons   253.57511444972562     
 augmentation electrons   31.552509442589447     
 soft         electrons   253.57511444972562     
 augmentation electrons   31.552509442589447     
 soft         electrons   253.57511444972562     
 augmentation electrons   31.552509442589447     
 soft         electrons   253.57511444972562     
 augmentation electrons   31.552509442589447     
 soft         electrons   253.57511444972562     
 augmentation electrons   31.552509442589447     
 soft         electrons   253.57511444972562     
 augmentation electrons   31.552509442589447     
 soft         electrons   253.57511444972562     
 augmentation electrons   31.552509442589447     
 soft         electrons   253.57511444972562     
 augmentation electrons   31.552509442589447     
 soft         electrons   253.57511444972562     
 augmentation electrons   31.552509442589447     
 soft         electrons   253.57511444972562     
 augmentation electrons   31.552509442589447     
 soft         electrons   253.57511444972562     
 augmentation electrons   31.552509442589447     
 soft         electrons   253.57511444972562     
 total        electrons   285.12762389231506     
 total        electrons   285.12762389231506     
 total        electrons   285.12762389231506     
 total        electrons   285.12762389231506     
 total        electrons   285.12762389231506     
 total        electrons   285.12762389231506     
 total        electrons   285.12762389231506     
 total        electrons   285.12762389231506     
 total        electrons   285.12762389231506     
 total        electrons   285.12762389231506     
 total        electrons   285.12762389231506     
 total        electrons   285.12762389231506     
 total        electrons   285.12762389231506     
 total        electrons   285.12762389231506     
 total        electrons   285.12762389231506     
 total        electrons   285.12762389231506     
 total        electrons   285.12762389231506     
 total        electrons   285.12762389231506     
 total        electrons   285.12762389231506     
 total        electrons   285.12762389231506     
 total        electrons   285.12762389231506     
 total        electrons   285.12762389231506     
 total        electrons   285.12762389231506     
 total        electrons   285.12762389231506     
 total        electrons   285.12762389231506     
 total        electrons   285.12762389231506     
 total        electrons   285.12762389231506     
 total        electrons   285.12762389231506     
 total        electrons   285.12762389231506     
 total        electrons   285.12762389231506     
 total        electrons   285.12762389231506     
 total        electrons   285.12762389231506     
 total        electrons   285.12762389231506     
 total        electrons   285.12762389231506     
 total        electrons   285.12762389231506     
 total        electrons   285.12762389231506     
 total        electrons   285.12762389231506     
 total        electrons   285.12762389231506     
 total        electrons   285.12762389231506     
 total        electrons   285.12762389231506     
 total        electrons   285.12762389231506     
 total        electrons   285.12762389231506     
 total        electrons   285.12762389231506     
 total        electrons   285.12762389231506     
 total        electrons   285.12762389231506     
 total        electrons   285.12762389231506     
 total        electrons   285.12762389231506     
 total        electrons   285.12762389231506     
 total        electrons   285.12762389231506     
 total        electrons   285.12762389231506     
 total        electrons   285.12762389231506     
 total        electrons   285.12762389231506     
 total        electrons   285.12762389231506     
 total        electrons   285.12762389231506     
 total        electrons   285.12762389231506     
 total        electrons   285.12762389231506     
 total        electrons   285.12762389231506     
 total        electrons   285.12762389231506     
 total        electrons   285.12762389231506     
 total        electrons   285.12762389231506     
 total        electrons   285.12762389231506     
 total        electrons   285.12762389231506     
 total        electrons   285.12762389231506     
 total        electrons   285.12762389231506     
 total        electrons   285.12762389231506     
 total        electrons   285.12762389231506     
 total        electrons   285.12762389231506     
 total        electrons   285.12762389231506     
 total        electrons   285.12762389231506     
 total        electrons   285.12762389231506     
 total        electrons   285.12762389231506     
 total        electrons   285.12762389231506     
Note: The following floating-point exceptions are signalling: IEEE_OVERFLOW_FLAG
Note: The following floating-point exceptions are signalling: IEEE_OVERFLOW_FLAG
Note: The following floating-point exceptions are signalling: IEEE_OVERFLOW_FLAG
Note: The following floating-point exceptions are signalling: IEEE_OVERFLOW_FLAG
Note: The following floating-point exceptions are signalling: IEEE_OVERFLOW_FLAG
Note: The following floating-point exceptions are signalling: IEEE_INVALID_FLAG IEEE_OVERFLOW_FLAG
Note: The following floating-point exceptions are signalling: IEEE_OVERFLOW_FLAG
Note: The following floating-point exceptions are signalling: IEEE_OVERFLOW_FLAG
Note: The following floating-point exceptions are signalling: IEEE_OVERFLOW_FLAG
Note: The following floating-point exceptions are signalling: IEEE_OVERFLOW_FLAG
Note: The following floating-point exceptions are signalling: IEEE_OVERFLOW_FLAG
Note: The following floating-point exceptions are signalling: IEEE_OVERFLOW_FLAG
Note: The following floating-point exceptions are signalling: IEEE_OVERFLOW_FLAG
Note: The following floating-point exceptions are signalling: IEEE_OVERFLOW_FLAG
Note: The following floating-point exceptions are signalling: IEEE_OVERFLOW_FLAG
Note: The following floating-point exceptions are signalling: IEEE_OVERFLOW_FLAG
Note: The following floating-point exceptions are signalling: IEEE_OVERFLOW_FLAG
Note: The following floating-point exceptions are signalling: IEEE_OVERFLOW_FLAG
Note: The following floating-point exceptions are signalling: IEEE_OVERFLOW_FLAG
Note: The following floating-point exceptions are signalling: IEEE_OVERFLOW_FLAG
Note: The following floating-point exceptions are signalling: IEEE_OVERFLOW_FLAG
Note: The following floating-point exceptions are signalling: IEEE_OVERFLOW_FLAG
Note: The following floating-point exceptions are signalling: IEEE_OVERFLOW_FLAG
Note: The following floating-point exceptions are signalling: IEEE_OVERFLOW_FLAG
Note: The following floating-point exceptions are signalling: IEEE_OVERFLOW_FLAG
Note: The following floating-point exceptions are signalling: IEEE_OVERFLOW_FLAG
Note: The following floating-point exceptions are signalling: IEEE_OVERFLOW_FLAG
Note: The following floating-point exceptions are signalling: IEEE_OVERFLOW_FLAG
Note: The following floating-point exceptions are signalling: IEEE_OVERFLOW_FLAG
Note: The following floating-point exceptions are signalling: IEEE_OVERFLOW_FLAG
Note: The following floating-point exceptions are signalling: IEEE_OVERFLOW_FLAG
Note: The following floating-point exceptions are signalling: IEEE_OVERFLOW_FLAG
Note: The following floating-point exceptions are signalling: IEEE_OVERFLOW_FLAG
Note: The following floating-point exceptions are signalling: IEEE_OVERFLOW_FLAG
Note: The following floating-point exceptions are signalling: IEEE_OVERFLOW_FLAG
Note: The following floating-point exceptions are signalling: IEEE_OVERFLOW_FLAG
Note: The following floating-point exceptions are signalling: IEEE_OVERFLOW_FLAG
Note: The following floating-point exceptions are signalling: IEEE_OVERFLOW_FLAG
Note: The following floating-point exceptions are signalling: IEEE_OVERFLOW_FLAG
Note: The following floating-point exceptions are signalling: IEEE_OVERFLOW_FLAG
Note: The following floating-point exceptions are signalling: IEEE_OVERFLOW_FLAG
Note: The following floating-point exceptions are signalling: IEEE_OVERFLOW_FLAG
Note: The following floating-point exceptions are signalling: IEEE_INVALID_FLAG IEEE_OVERFLOW_FLAG
Note: The following floating-point exceptions are signalling: IEEE_OVERFLOW_FLAG
Note: The following floating-point exceptions are signalling: IEEE_OVERFLOW_FLAG
Note: The following floating-point exceptions are signalling: IEEE_OVERFLOW_FLAG
Note: The following floating-point exceptions are signalling: IEEE_OVERFLOW_FLAG
Note: The following floating-point exceptions are signalling: IEEE_OVERFLOW_FLAG
Note: The following floating-point exceptions are signalling: IEEE_OVERFLOW_FLAG
Note: The following floating-point exceptions are signalling: IEEE_OVERFLOW_FLAG
Note: The following floating-point exceptions are signalling: IEEE_INVALID_FLAG IEEE_OVERFLOW_FLAG
Note: The following floating-point exceptions are signalling: IEEE_OVERFLOW_FLAG
Note: The following floating-point exceptions are signalling: IEEE_INVALID_FLAG IEEE_OVERFLOW_FLAG
Note: The following floating-point exceptions are signalling: IEEE_OVERFLOW_FLAG
Note: The following floating-point exceptions are signalling: IEEE_OVERFLOW_FLAG
Note: The following floating-point exceptions are signalling: IEEE_OVERFLOW_FLAG
Note: The following floating-point exceptions are signalling: IEEE_OVERFLOW_FLAG
Note: The following floating-point exceptions are signalling: IEEE_OVERFLOW_FLAG
Note: The following floating-point exceptions are signalling: IEEE_OVERFLOW_FLAG
Note: The following floating-point exceptions are signalling: IEEE_OVERFLOW_FLAG
Note: The following floating-point exceptions are signalling: IEEE_OVERFLOW_FLAG
Note: The following floating-point exceptions are signalling: IEEE_OVERFLOW_FLAG
Note: The following floating-point exceptions are signalling: IEEE_OVERFLOW_FLAG
Note: The following floating-point exceptions are signalling: IEEE_OVERFLOW_FLAG
Note: The following floating-point exceptions are signalling: IEEE_OVERFLOW_FLAG
Note: The following floating-point exceptions are signalling: IEEE_OVERFLOW_FLAG
Note: The following floating-point exceptions are signalling: IEEE_OVERFLOW_FLAG
Note: The following floating-point exceptions are signalling: IEEE_OVERFLOW_FLAG
Note: The following floating-point exceptions are signalling: IEEE_OVERFLOW_FLAG
Note: The following floating-point exceptions are signalling: IEEE_OVERFLOW_FLAG
Note: The following floating-point exceptions are signalling: IEEE_OVERFLOW_FLAG
Note: The following floating-point exceptions are signalling: IEEE_OVERFLOW_FLAG
