   74   74    1    1
  0.2087222E+02  0.1036705E-08  0.2428040E-08  0.6136055E-09  0.5000000E-15
   1.0000000000000000E-004
  CAR 
 Name                                    
    278     15    180

  0.3742002E-15  0.1262379E-14  0.3742002E-15  0.2222222E-01
    1      -14.056237   1.000000
    2      -12.871296   1.000000
    3      -12.870676   1.000000
    4      -12.846061   1.000000
    5      -11.931220   1.000000
    6      -11.732603   1.000000
    7      -11.714986   1.000000
    8      -11.508236   1.000000
    9      -11.500561   1.000000
   10      -11.322368   1.000000
   11      -11.263770   1.000000
   12      -11.045884   1.000000
   13      -10.995187   1.000000
   14      -10.518879   1.000000
   15      -10.476187   1.000000
   16      -10.298141   1.000000
   17      -10.216045   1.000000
   18      -10.105227   1.000000
   19       -9.689131   1.000000
   20       -9.634239   1.000000
   21       -9.567867   1.000000
   22       -9.535400   1.000000
   23       -9.422768   1.000000
   24       -9.335208   1.000000
   25       -8.885131   1.000000
   26       -8.848494   1.000000
   27       -8.566254   1.000000
   28       -8.502339   1.000000
   29       -8.211167   1.000000
   30       -8.209713   1.000000
   31       -8.154794   1.000000
   32       -7.802524   1.000000
   33       -7.778800   1.000000
   34       -7.271978   1.000000
   35       -7.234389   1.000000
   36       -7.230494   1.000000
   37       -7.026966   1.000000
   38       -6.926483   1.000000
   39       -6.834217   1.000000
   40       -6.718498   1.000000
   41       -6.716569   1.000000
   42       -6.707015   1.000000
   43       -6.525539   1.000000
   44       -6.446758   1.000000
   45       -6.436257   1.000000
   46       -6.269090   1.000000
   47       -6.182431   1.000000
   48       -6.133522   1.000000
   49       -6.119663   1.000000
   50       -5.880881   1.000000
   51       -5.804105   1.000000
   52       -5.673561   1.000000
   53       -5.657786   1.000000
   54       -5.642064   1.000000
   55       -5.619483   1.000000
   56       -5.534896   1.000000
   57       -5.483650   1.000000
   58       -5.325776   1.000000
   59       -5.229005   1.000000
   60       -5.208718   1.000000
   61       -4.964640   1.000000
   62       -4.929592   1.000000
   63       -4.708276   1.000000
   64       -4.702708   1.000000
   65       -4.676720   1.000000
   66       -4.552001   1.000000
   67       -4.491803   1.000000
   68       -4.480662   1.000000
   69       -4.393755   1.000000
   70       -4.209930   1.000000
   71       -4.154573   1.000000
   72       -4.081830   1.000000
   73       -4.051459   1.000000
   74       -4.035567   1.000000
   75       -3.959627   1.000000
   76       -3.943630   1.000000
   77       -3.936907   1.000000
   78       -3.908116   1.000000
   79       -3.871911   1.000000
   80       -3.795482   1.000000
   81       -3.612463   1.000000
   82       -3.611318   1.000000
   83       -3.587443   1.000000
   84       -3.586109   1.000000
   85       -3.541305   1.000000
   86       -3.524009   1.000000
   87       -3.512818   1.000000
   88       -3.503838   1.000000
   89       -3.469780   1.000000
   90       -3.458840   1.000000
   91       -3.438248   1.000000
   92       -3.342255   1.000000
   93       -3.265718   1.000000
   94       -3.001436   1.000000
   95       -2.939219   1.000000
   96       -2.927851   1.000000
   97       -2.839618   1.000000
   98       -2.793490   1.000000
   99       -2.712925   1.000000
  100       -2.597772   1.000000
  101       -2.452086   1.000000
  102       -2.400538   1.000000
  103       -2.338450   1.000000
  104       -2.303837   1.000000
  105       -2.248696   1.000000
  106       -2.130529   1.000000
  107       -2.059017   1.000000
  108       -2.034799   1.000000
  109       -2.018373   1.000000
  110       -1.995046   1.000000
  111       -1.919063   1.000000
  112       -1.834421   1.000000
  113       -1.773722   1.000000
  114       -1.717124   1.000000
  115       -1.705739   1.000000
  116       -1.604041   1.000000
  117       -1.576875   1.000000
  118       -1.575467   1.000000
  119       -1.439903   1.000000
  120       -1.367353   1.000000
  121       -1.236073   1.000000
  122       -1.061318   1.000000
  123       -1.001525   1.000000
  124       -0.852658   1.000000
  125       -0.818077   1.000000
  126       -0.652282   1.000000
  127       -0.512278   1.000000
  128       -0.432381   1.000000
  129       -0.397484   1.000000
  130       -0.336495   1.000000
  131       -0.087377   1.000000
  132       -0.051883   1.000000
  133        0.076193   1.000225
  134        0.238623   1.035438
  135        0.264168   1.020199
  136        0.276774   0.997769
  137        0.336122   0.695567
  138        0.411802   0.119986
  139        0.463642  -0.028533
  140        0.465068  -0.029644
  141        0.552148  -0.010207
  142        0.554506  -0.009499
  143        0.600028  -0.001784
  144        0.606698  -0.001338
  145        0.607738  -0.001278
  146        0.652778  -0.000139
  147        0.678910  -0.000031
  148        0.749119  -0.000000
  149        0.815744  -0.000000
  150        0.838153  -0.000000
  151        0.980968  -0.000000
  152        1.013526  -0.000000
  153        1.079027  -0.000000
  154        1.145663  -0.000000
  155        1.170070  -0.000000
  156        1.184836  -0.000000
  157        1.190804  -0.000000
  158        1.331204  -0.000000
  159        1.343303  -0.000000
  160        1.364358  -0.000000
  161        1.365758  -0.000000
  162        1.416160  -0.000000
  163        1.425300  -0.000000
  164        1.439722  -0.000000
  165        1.506293  -0.000000
  166        1.599239  -0.000000
  167        1.630411  -0.000000
  168        1.682775  -0.000000
  169        1.719659  -0.000000
  170        1.736767  -0.000000
  171        1.748287  -0.000000
  172        1.785140  -0.000000
  173        1.807660  -0.000000
  174        2.307507  -0.000000
  175        2.368640  -0.000000
  176        2.395091  -0.000000
  177        2.412266  -0.000000
  178        2.710847  -0.000000
  179        2.978818  -0.000000
  180        3.915227   0.000000

  0.2000000E+00  0.1262379E-14  0.3742002E-15  0.4444444E-01
    1      -14.006865   1.000000
    2      -13.286160   1.000000
    3      -12.799730   1.000000
    4      -12.380589   1.000000
    5      -12.118946   1.000000
    6      -11.914891   1.000000
    7      -11.661426   1.000000
    8      -11.316880   1.000000
    9      -11.308891   1.000000
   10      -11.253536   1.000000
   11      -11.225848   1.000000
   12      -11.122197   1.000000
   13      -10.890043   1.000000
   14      -10.616808   1.000000
   15      -10.615606   1.000000
   16      -10.577725   1.000000
   17      -10.511004   1.000000
   18       -9.830389   1.000000
   19       -9.691463   1.000000
   20       -9.605530   1.000000
   21       -9.500441   1.000000
   22       -9.498456   1.000000
   23       -9.452922   1.000000
   24       -9.344430   1.000000
   25       -9.043947   1.000000
   26       -8.854467   1.000000
   27       -8.294892   1.000000
   28       -8.224969   1.000000
   29       -8.173426   1.000000
   30       -8.160252   1.000000
   31       -8.098921   1.000000
   32       -8.071306   1.000000
   33       -7.625695   1.000000
   34       -7.491334   1.000000
   35       -7.238543   1.000000
   36       -7.232384   1.000000
   37       -7.162213   1.000000
   38       -7.051539   1.000000
   39       -6.906036   1.000000
   40       -6.764951   1.000000
   41       -6.691039   1.000000
   42       -6.622792   1.000000
   43       -6.621047   1.000000
   44       -6.487328   1.000000
   45       -6.372546   1.000000
   46       -6.318886   1.000000
   47       -6.192524   1.000000
   48       -6.086231   1.000000
   49       -6.049668   1.000000
   50       -6.034508   1.000000
   51       -5.714665   1.000000
   52       -5.684775   1.000000
   53       -5.599919   1.000000
   54       -5.420968   1.000000
   55       -5.413102   1.000000
   56       -5.360052   1.000000
   57       -5.357832   1.000000
   58       -5.332821   1.000000
   59       -5.279415   1.000000
   60       -5.262600   1.000000
   61       -5.207588   1.000000
   62       -4.871824   1.000000
   63       -4.852111   1.000000
   64       -4.741462   1.000000
   65       -4.736257   1.000000
   66       -4.566716   1.000000
   67       -4.546614   1.000000
   68       -4.495561   1.000000
   69       -4.396621   1.000000
   70       -4.177200   1.000000
   71       -4.128949   1.000000
   72       -4.122711   1.000000
   73       -4.058163   1.000000
   74       -4.043375   1.000000
   75       -4.017740   1.000000
   76       -3.900889   1.000000
   77       -3.894925   1.000000
   78       -3.852258   1.000000
   79       -3.772130   1.000000
   80       -3.743847   1.000000
   81       -3.727350   1.000000
   82       -3.643563   1.000000
   83       -3.621219   1.000000
   84       -3.616801   1.000000
   85       -3.600070   1.000000
   86       -3.563000   1.000000
   87       -3.472510   1.000000
   88       -3.460818   1.000000
   89       -3.444776   1.000000
   90       -3.442789   1.000000
   91       -3.422180   1.000000
   92       -3.328278   1.000000
   93       -3.297195   1.000000
   94       -3.012794   1.000000
   95       -2.995780   1.000000
   96       -2.959376   1.000000
   97       -2.822298   1.000000
   98       -2.787622   1.000000
   99       -2.708447   1.000000
  100       -2.611718   1.000000
  101       -2.505872   1.000000
  102       -2.379244   1.000000
  103       -2.365724   1.000000
  104       -2.339867   1.000000
  105       -2.220091   1.000000
  106       -2.123118   1.000000
  107       -2.002174   1.000000
  108       -1.985646   1.000000
  109       -1.947897   1.000000
  110       -1.937544   1.000000
  111       -1.863635   1.000000
  112       -1.862335   1.000000
  113       -1.803019   1.000000
  114       -1.726674   1.000000
  115       -1.633528   1.000000
  116       -1.547151   1.000000
  117       -1.488713   1.000000
  118       -1.457866   1.000000
  119       -1.440925   1.000000
  120       -1.321285   1.000000
  121       -1.203376   1.000000
  122       -1.091828   1.000000
  123       -0.954831   1.000000
  124       -0.924144   1.000000
  125       -0.834852   1.000000
  126       -0.761014   1.000000
  127       -0.590466   1.000000
  128       -0.435142   1.000000
  129       -0.426049   1.000000
  130       -0.413297   1.000000
  131       -0.238439   1.000000
  132       -0.206125   1.000000
  133       -0.096878   1.000000
  134        0.120608   1.001838
  135        0.136146   1.003439
  136        0.214319   1.029541
  137        0.297937   0.928911
  138        0.421770   0.072054
  139        0.431185   0.035942
  140        0.540381  -0.014272
  141        0.589288  -0.002774
  142        0.613353  -0.000994
  143        0.620268  -0.000722
  144        0.650453  -0.000157
  145        0.667498  -0.000061
  146        0.707189  -0.000005
  147        0.732504  -0.000001
  148        0.743712  -0.000000
  149        0.859572  -0.000000
  150        0.884047  -0.000000
  151        1.007606  -0.000000
  152        1.106460  -0.000000
  153        1.110112  -0.000000
  154        1.156971  -0.000000
  155        1.238932  -0.000000
  156        1.249888  -0.000000
  157        1.282904  -0.000000
  158        1.324504  -0.000000
  159        1.344921  -0.000000
  160        1.359685  -0.000000
  161        1.431637  -0.000000
  162        1.437830  -0.000000
  163        1.444028  -0.000000
  164        1.492732  -0.000000
  165        1.529013  -0.000000
  166        1.615348  -0.000000
  167        1.623325  -0.000000
  168        1.654326  -0.000000
  169        1.688834  -0.000000
  170        1.726242  -0.000000
  171        1.747441  -0.000000
  172        1.812129  -0.000000
  173        1.971357  -0.000000
  174        2.111418  -0.000000
  175        2.260040  -0.000000
  176        2.393472  -0.000000
  177        2.458503  -0.000000
  178        2.787075  -0.000000
  179        3.215608   0.000000
  180        3.803631   0.000000

  0.4000000E+00  0.1262379E-14  0.3742002E-15  0.4444444E-01
    1      -13.859761   1.000000
    2      -13.617913   1.000000
    3      -12.661459   1.000000
    4      -12.433452   1.000000
    5      -11.865415   1.000000
    6      -11.824287   1.000000
    7      -11.781395   1.000000
    8      -11.275748   1.000000
    9      -11.228227   1.000000
   10      -11.216241   1.000000
   11      -11.103971   1.000000
   12      -11.064046   1.000000
   13      -10.901506   1.000000
   14      -10.828673   1.000000
   15      -10.748971   1.000000
   16      -10.713950   1.000000
   17      -10.611243   1.000000
   18      -10.127068   1.000000
   19       -9.688760   1.000000
   20       -9.655392   1.000000
   21       -9.425232   1.000000
   22       -9.374240   1.000000
   23       -9.352828   1.000000
   24       -9.295809   1.000000
   25       -9.095497   1.000000
   26       -8.814275   1.000000
   27       -8.325621   1.000000
   28       -8.070680   1.000000
   29       -7.884492   1.000000
   30       -7.853232   1.000000
   31       -7.820286   1.000000
   32       -7.818798   1.000000
   33       -7.772326   1.000000
   34       -7.741353   1.000000
   35       -7.522538   1.000000
   36       -7.459743   1.000000
   37       -7.364607   1.000000
   38       -7.311699   1.000000
   39       -7.148476   1.000000
   40       -6.856044   1.000000
   41       -6.738359   1.000000
   42       -6.545390   1.000000
   43       -6.506613   1.000000
   44       -6.411791   1.000000
   45       -6.388223   1.000000
   46       -6.159699   1.000000
   47       -6.137953   1.000000
   48       -5.993022   1.000000
   49       -5.928650   1.000000
   50       -5.859271   1.000000
   51       -5.835817   1.000000
   52       -5.733171   1.000000
   53       -5.730993   1.000000
   54       -5.578791   1.000000
   55       -5.453698   1.000000
   56       -5.329635   1.000000
   57       -5.175867   1.000000
   58       -5.146227   1.000000
   59       -5.130197   1.000000
   60       -5.119345   1.000000
   61       -5.092320   1.000000
   62       -5.033385   1.000000
   63       -4.891481   1.000000
   64       -4.824770   1.000000
   65       -4.722450   1.000000
   66       -4.656314   1.000000
   67       -4.588624   1.000000
   68       -4.430782   1.000000
   69       -4.360494   1.000000
   70       -4.288614   1.000000
   71       -4.159264   1.000000
   72       -4.132987   1.000000
   73       -4.114368   1.000000
   74       -4.073128   1.000000
   75       -4.065413   1.000000
   76       -3.994983   1.000000
   77       -3.944659   1.000000
   78       -3.902901   1.000000
   79       -3.806420   1.000000
   80       -3.727245   1.000000
   81       -3.699669   1.000000
   82       -3.695090   1.000000
   83       -3.688967   1.000000
   84       -3.648684   1.000000
   85       -3.591361   1.000000
   86       -3.489299   1.000000
   87       -3.475044   1.000000
   88       -3.447864   1.000000
   89       -3.333631   1.000000
   90       -3.286258   1.000000
   91       -3.268556   1.000000
   92       -3.266558   1.000000
   93       -3.224248   1.000000
   94       -3.110546   1.000000
   95       -3.081543   1.000000
   96       -3.031387   1.000000
   97       -2.953505   1.000000
   98       -2.837372   1.000000
   99       -2.820540   1.000000
  100       -2.656548   1.000000
  101       -2.506427   1.000000
  102       -2.354595   1.000000
  103       -2.327795   1.000000
  104       -2.203371   1.000000
  105       -2.187600   1.000000
  106       -2.168874   1.000000
  107       -2.074962   1.000000
  108       -1.986679   1.000000
  109       -1.969653   1.000000
  110       -1.949575   1.000000
  111       -1.766901   1.000000
  112       -1.693703   1.000000
  113       -1.682403   1.000000
  114       -1.599078   1.000000
  115       -1.558950   1.000000
  116       -1.511867   1.000000
  117       -1.398778   1.000000
  118       -1.285900   1.000000
  119       -1.251245   1.000000
  120       -1.128445   1.000000
  121       -1.113142   1.000000
  122       -1.091625   1.000000
  123       -1.059947   1.000000
  124       -0.994498   1.000000
  125       -0.934347   1.000000
  126       -0.856892   1.000000
  127       -0.739982   1.000000
  128       -0.692476   1.000000
  129       -0.679906   1.000000
  130       -0.569379   1.000000
  131       -0.408847   1.000000
  132       -0.402861   1.000000
  133       -0.098424   1.000000
  134       -0.073698   1.000000
  135        0.065781   1.000129
  136        0.267922   1.014780
  137        0.276622   0.998115
  138        0.333804   0.713225
  139        0.474023  -0.034237
  140        0.515812  -0.024988
  141        0.544972  -0.012583
  142        0.568466  -0.006017
  143        0.619774  -0.000739
  144        0.637828  -0.000305
  145        0.676070  -0.000037
  146        0.702442  -0.000007
  147        0.828996  -0.000000
  148        0.839449  -0.000000
  149        0.893718  -0.000000
  150        0.979831  -0.000000
  151        1.152114  -0.000000
  152        1.190045  -0.000000
  153        1.200992  -0.000000
  154        1.237387  -0.000000
  155        1.270561  -0.000000
  156        1.299682  -0.000000
  157        1.333117  -0.000000
  158        1.432167  -0.000000
  159        1.443273  -0.000000
  160        1.452562  -0.000000
  161        1.478984  -0.000000
  162        1.484035  -0.000000
  163        1.497685  -0.000000
  164        1.567397  -0.000000
  165        1.593251  -0.000000
  166        1.616214  -0.000000
  167        1.629200  -0.000000
  168        1.646159  -0.000000
  169        1.721524  -0.000000
  170        1.735528  -0.000000
  171        1.748434  -0.000000
  172        1.794722  -0.000000
  173        1.820307  -0.000000
  174        1.872299  -0.000000
  175        1.911399  -0.000000
  176        1.923839  -0.000000
  177        2.173841  -0.000000
  178        2.535723  -0.000000
  179        2.804746  -0.000000
  180        3.062393  -0.000000

  0.3742002E-15  0.1262379E-14  0.1111111E+00  0.4444444E-01
    1      -14.010898   1.000000
    2      -12.836704   1.000000
    3      -12.836129   1.000000
    4      -12.807751   1.000000
    5      -12.035771   1.000000
    6      -11.704843   1.000000
    7      -11.686163   1.000000
    8      -11.553565   1.000000
    9      -11.546640   1.000000
   10      -11.388461   1.000000
   11      -11.227159   1.000000
   12      -11.055875   1.000000
   13      -11.006819   1.000000
   14      -10.500886   1.000000
   15      -10.495147   1.000000
   16      -10.270805   1.000000
   17      -10.199041   1.000000
   18      -10.066267   1.000000
   19       -9.711926   1.000000
   20       -9.664548   1.000000
   21       -9.562430   1.000000
   22       -9.549005   1.000000
   23       -9.423482   1.000000
   24       -9.321793   1.000000
   25       -8.877687   1.000000
   26       -8.857653   1.000000
   27       -8.563131   1.000000
   28       -8.494281   1.000000
   29       -8.249720   1.000000
   30       -8.191609   1.000000
   31       -7.987968   1.000000
   32       -7.878252   1.000000
   33       -7.814633   1.000000
   34       -7.381042   1.000000
   35       -7.334696   1.000000
   36       -7.211321   1.000000
   37       -7.000756   1.000000
   38       -6.924522   1.000000
   39       -6.820792   1.000000
   40       -6.658266   1.000000
   41       -6.653387   1.000000
   42       -6.627830   1.000000
   43       -6.510359   1.000000
   44       -6.447846   1.000000
   45       -6.424545   1.000000
   46       -6.284352   1.000000
   47       -6.211256   1.000000
   48       -6.165412   1.000000
   49       -6.154240   1.000000
   50       -5.829063   1.000000
   51       -5.744219   1.000000
   52       -5.737795   1.000000
   53       -5.673041   1.000000
   54       -5.647297   1.000000
   55       -5.588076   1.000000
   56       -5.439016   1.000000
   57       -5.424153   1.000000
   58       -5.273352   1.000000
   59       -5.226957   1.000000
   60       -5.187598   1.000000
   61       -4.942552   1.000000
   62       -4.920010   1.000000
   63       -4.674034   1.000000
   64       -4.649589   1.000000
   65       -4.623929   1.000000
   66       -4.543678   1.000000
   67       -4.487564   1.000000
   68       -4.477508   1.000000
   69       -4.403839   1.000000
   70       -4.215590   1.000000
   71       -4.136219   1.000000
   72       -4.089251   1.000000
   73       -4.079719   1.000000
   74       -4.031995   1.000000
   75       -3.993110   1.000000
   76       -3.983438   1.000000
   77       -3.960121   1.000000
   78       -3.939474   1.000000
   79       -3.936003   1.000000
   80       -3.829170   1.000000
   81       -3.772923   1.000000
   82       -3.759788   1.000000
   83       -3.688534   1.000000
   84       -3.654815   1.000000
   85       -3.636056   1.000000
   86       -3.562144   1.000000
   87       -3.519831   1.000000
   88       -3.493314   1.000000
   89       -3.474054   1.000000
   90       -3.464010   1.000000
   91       -3.439362   1.000000
   92       -3.336599   1.000000
   93       -3.255268   1.000000
   94       -3.013775   1.000000
   95       -2.941170   1.000000
   96       -2.901104   1.000000
   97       -2.810243   1.000000
   98       -2.713056   1.000000
   99       -2.652314   1.000000
  100       -2.515363   1.000000
  101       -2.483936   1.000000
  102       -2.451280   1.000000
  103       -2.406385   1.000000
  104       -2.254533   1.000000
  105       -2.223117   1.000000
  106       -2.199007   1.000000
  107       -2.095560   1.000000
  108       -2.020311   1.000000
  109       -1.994761   1.000000
  110       -1.974524   1.000000
  111       -1.970934   1.000000
  112       -1.785258   1.000000
  113       -1.776717   1.000000
  114       -1.772325   1.000000
  115       -1.706617   1.000000
  116       -1.629057   1.000000
  117       -1.574018   1.000000
  118       -1.532536   1.000000
  119       -1.338341   1.000000
  120       -1.295513   1.000000
  121       -1.144325   1.000000
  122       -1.112503   1.000000
  123       -0.977309   1.000000
  124       -0.915169   1.000000
  125       -0.755126   1.000000
  126       -0.622077   1.000000
  127       -0.566757   1.000000
  128       -0.527576   1.000000
  129       -0.474419   1.000000
  130       -0.243530   1.000000
  131       -0.196238   1.000000
  132       -0.158072   1.000000
  133        0.156435   1.007121
  134        0.228705   1.034405
  135        0.249820   1.032705
  136        0.256348   1.028486
  137        0.293348   0.947508
  138        0.318537   0.819462
  139        0.409927   0.130115
  140        0.429332   0.042360
  141        0.431454   0.035040
  142        0.452289  -0.015217
  143        0.597590  -0.001977
  144        0.603971  -0.001507
  145        0.634238  -0.000366
  146        0.794147  -0.000000
  147        0.826252  -0.000000
  148        0.922129  -0.000000
  149        0.956488  -0.000000
  150        0.967909  -0.000000
  151        0.982733  -0.000000
  152        1.053375  -0.000000
  153        1.082266  -0.000000
  154        1.083049  -0.000000
  155        1.138790  -0.000000
  156        1.162976  -0.000000
  157        1.271813  -0.000000
  158        1.293327  -0.000000
  159        1.330325  -0.000000
  160        1.358142  -0.000000
  161        1.399414  -0.000000
  162        1.409505  -0.000000
  163        1.442773  -0.000000
  164        1.464496  -0.000000
  165        1.516163  -0.000000
  166        1.573374  -0.000000
  167        1.601901  -0.000000
  168        1.625476  -0.000000
  169        1.657810  -0.000000
  170        1.688745  -0.000000
  171        1.739199  -0.000000
  172        1.795264  -0.000000
  173        1.832091  -0.000000
  174        1.906611  -0.000000
  175        2.044310  -0.000000
  176        2.362022  -0.000000
  177        2.457344  -0.000000
  178        3.038534  -0.000000
  179        3.961086   0.000000
  180        4.096688   0.000000

  0.2000000E+00  0.1262379E-14  0.1111111E+00  0.8888889E-01
    1      -13.961927   1.000000
    2      -13.247537   1.000000
    3      -12.761790   1.000000
    4      -12.351655   1.000000
    5      -12.086832   1.000000
    6      -12.016555   1.000000
    7      -11.722752   1.000000
    8      -11.371993   1.000000
    9      -11.345467   1.000000
   10      -11.231545   1.000000
   11      -11.189677   1.000000
   12      -11.145514   1.000000
   13      -10.891421   1.000000
   14      -10.600644   1.000000
   15      -10.590865   1.000000
   16      -10.561664   1.000000
   17      -10.523024   1.000000
   18       -9.813320   1.000000
   19       -9.716696   1.000000
   20       -9.601700   1.000000
   21       -9.520582   1.000000
   22       -9.491247   1.000000
   23       -9.442609   1.000000
   24       -9.348396   1.000000
   25       -9.040739   1.000000
   26       -8.846996   1.000000
   27       -8.317837   1.000000
   28       -8.230213   1.000000
   29       -8.171237   1.000000
   30       -8.159423   1.000000
   31       -8.102548   1.000000
   32       -7.918617   1.000000
   33       -7.708912   1.000000
   34       -7.569570   1.000000
   35       -7.320272   1.000000
   36       -7.161433   1.000000
   37       -7.105994   1.000000
   38       -7.037947   1.000000
   39       -6.908851   1.000000
   40       -6.751822   1.000000
   41       -6.680412   1.000000
   42       -6.664397   1.000000
   43       -6.564021   1.000000
   44       -6.496392   1.000000
   45       -6.477822   1.000000
   46       -6.372297   1.000000
   47       -6.142313   1.000000
   48       -6.125884   1.000000
   49       -5.992223   1.000000
   50       -5.861657   1.000000
   51       -5.739099   1.000000
   52       -5.713625   1.000000
   53       -5.578552   1.000000
   54       -5.445758   1.000000
   55       -5.434703   1.000000
   56       -5.373189   1.000000
   57       -5.328876   1.000000
   58       -5.258059   1.000000
   59       -5.232450   1.000000
   60       -5.207915   1.000000
   61       -5.156630   1.000000
   62       -4.856179   1.000000
   63       -4.840620   1.000000
   64       -4.710367   1.000000
   65       -4.698261   1.000000
   66       -4.545937   1.000000
   67       -4.543603   1.000000
   68       -4.426615   1.000000
   69       -4.393242   1.000000
   70       -4.201606   1.000000
   71       -4.150085   1.000000
   72       -4.119631   1.000000
   73       -4.072462   1.000000
   74       -4.025832   1.000000
   75       -4.021938   1.000000
   76       -3.973456   1.000000
   77       -3.963712   1.000000
   78       -3.900539   1.000000
   79       -3.809873   1.000000
   80       -3.777511   1.000000
   81       -3.767516   1.000000
   82       -3.750225   1.000000
   83       -3.708984   1.000000
   84       -3.693215   1.000000
   85       -3.650323   1.000000
   86       -3.606649   1.000000
   87       -3.575462   1.000000
   88       -3.521087   1.000000
   89       -3.467764   1.000000
   90       -3.425745   1.000000
   91       -3.342292   1.000000
   92       -3.306222   1.000000
   93       -3.276044   1.000000
   94       -3.014399   1.000000
   95       -2.940628   1.000000
   96       -2.901710   1.000000
   97       -2.859175   1.000000
   98       -2.816036   1.000000
   99       -2.691628   1.000000
  100       -2.616000   1.000000
  101       -2.512913   1.000000
  102       -2.376973   1.000000
  103       -2.346422   1.000000
  104       -2.307600   1.000000
  105       -2.214608   1.000000
  106       -2.177121   1.000000
  107       -2.037294   1.000000
  108       -2.023486   1.000000
  109       -1.985103   1.000000
  110       -1.957123   1.000000
  111       -1.863027   1.000000
  112       -1.765469   1.000000
  113       -1.761846   1.000000
  114       -1.722577   1.000000
  115       -1.665160   1.000000
  116       -1.603343   1.000000
  117       -1.546236   1.000000
  118       -1.416952   1.000000
  119       -1.394842   1.000000
  120       -1.278515   1.000000
  121       -1.166660   1.000000
  122       -1.138732   1.000000
  123       -0.985350   1.000000
  124       -0.883357   1.000000
  125       -0.860210   1.000000
  126       -0.715593   1.000000
  127       -0.666260   1.000000
  128       -0.627985   1.000000
  129       -0.400451   1.000000
  130       -0.369082   1.000000
  131       -0.202224   1.000000
  132       -0.038865   1.000000
  133        0.060378   1.000096
  134        0.133804   1.003141
  135        0.144270   1.004661
  136        0.164594   1.009257
  137        0.212182   1.028628
  138        0.341868   0.650411
  139        0.368424   0.428708
  140        0.441321   0.006566
  141        0.502189  -0.030931
  142        0.554720  -0.009436
  143        0.619369  -0.000753
  144        0.634786  -0.000356
  145        0.651374  -0.000150
  146        0.776838  -0.000000
  147        0.840503  -0.000000
  148        0.850754  -0.000000
  149        0.982016  -0.000000
  150        0.998850  -0.000000
  151        1.040152  -0.000000
  152        1.053196  -0.000000
  153        1.105312  -0.000000
  154        1.186734  -0.000000
  155        1.216717  -0.000000
  156        1.288717  -0.000000
  157        1.311230  -0.000000
  158        1.326547  -0.000000
  159        1.349468  -0.000000
  160        1.359013  -0.000000
  161        1.400814  -0.000000
  162        1.423633  -0.000000
  163        1.424747  -0.000000
  164        1.513491  -0.000000
  165        1.533527  -0.000000
  166        1.537702  -0.000000
  167        1.576796  -0.000000
  168        1.614678  -0.000000
  169        1.678933  -0.000000
  170        1.715063  -0.000000
  171        1.736295  -0.000000
  172        1.777339  -0.000000
  173        1.800195  -0.000000