   69   69   85    1
  0.2263277E+02  0.1053953E-08  0.6141200E-09  0.2412750E-08  0.5000000E-15
   1.0000000000000000E-004
  CAR 
 Name                                    
    264     15    168

  0.3742002E-15  0.3742002E-15  0.1262379E-14  0.2222222E-01
    1      -14.083394   1.000000
    2      -12.975476   1.000000
    3      -12.809702   1.000000
    4      -12.649474   1.000000
    5      -12.085046   1.000000
    6      -11.832690   1.000000
    7      -11.786589   1.000000
    8      -11.520400   1.000000
    9      -11.508124   1.000000
   10      -11.393442   1.000000
   11      -11.149817   1.000000
   12      -11.128343   1.000000
   13      -10.886411   1.000000
   14      -10.537115   1.000000
   15      -10.292811   1.000000
   16      -10.287264   1.000000
   17      -10.231543   1.000000
   18      -10.028475   1.000000
   19       -9.909316   1.000000
   20       -9.902717   1.000000
   21       -9.666115   1.000000
   22       -9.645813   1.000000
   23       -9.389842   1.000000
   24       -9.324825   1.000000
   25       -9.108614   1.000000
   26       -8.984973   1.000000
   27       -8.520189   1.000000
   28       -8.427060   1.000000
   29       -8.335268   1.000000
   30       -8.283845   1.000000
   31       -8.176041   1.000000
   32       -8.002725   1.000000
   33       -7.756400   1.000000
   34       -7.326457   1.000000
   35       -7.296371   1.000000
   36       -7.198649   1.000000
   37       -7.126441   1.000000
   38       -6.982148   1.000000
   39       -6.917645   1.000000
   40       -6.844860   1.000000
   41       -6.727747   1.000000
   42       -6.723721   1.000000
   43       -6.661269   1.000000
   44       -6.467895   1.000000
   45       -6.428872   1.000000
   46       -6.333283   1.000000
   47       -6.328122   1.000000
   48       -6.139040   1.000000
   49       -6.135489   1.000000
   50       -6.027606   1.000000
   51       -5.795047   1.000000
   52       -5.763067   1.000000
   53       -5.749968   1.000000
   54       -5.612860   1.000000
   55       -5.510072   1.000000
   56       -5.433970   1.000000
   57       -5.379240   1.000000
   58       -5.325248   1.000000
   59       -5.313252   1.000000
   60       -5.178834   1.000000
   61       -5.101851   1.000000
   62       -4.982785   1.000000
   63       -4.881480   1.000000
   64       -4.810958   1.000000
   65       -4.807567   1.000000
   66       -4.700368   1.000000
   67       -4.666458   1.000000
   68       -4.644023   1.000000
   69       -4.491402   1.000000
   70       -4.382721   1.000000
   71       -4.346400   1.000000
   72       -4.309335   1.000000
   73       -4.195023   1.000000
   74       -4.194149   1.000000
   75       -4.143798   1.000000
   76       -4.106129   1.000000
   77       -4.034329   1.000000
   78       -4.001224   1.000000
   79       -3.867005   1.000000
   80       -3.862633   1.000000
   81       -3.810647   1.000000
   82       -3.746598   1.000000
   83       -3.668474   1.000000
   84       -3.590016   1.000000
   85       -3.569055   1.000000
   86       -3.518885   1.000000
   87       -3.424820   1.000000
   88       -3.320340   1.000000
   89       -3.244280   1.000000
   90       -3.164028   1.000000
   91       -3.111448   1.000000
   92       -3.052117   1.000000
   93       -3.043450   1.000000
   94       -2.867851   1.000000
   95       -2.771516   1.000000
   96       -2.748186   1.000000
   97       -2.696195   1.000000
   98       -2.665650   1.000000
   99       -2.547542   1.000000
  100       -2.537195   1.000000
  101       -2.512761   1.000000
  102       -2.496528   1.000000
  103       -2.492109   1.000000
  104       -2.402044   1.000000
  105       -2.352653   1.000000
  106       -2.325030   1.000000
  107       -2.237951   1.000000
  108       -2.140280   1.000000
  109       -2.129261   1.000000
  110       -2.019139   1.000000
  111       -1.961627   1.000000
  112       -1.958701   1.000000
  113       -1.886565   1.000000
  114       -1.772026   1.000000
  115       -1.731307   1.000000
  116       -1.662250   1.000000
  117       -1.417608   1.000000
  118       -1.346086   1.000000
  119       -1.325460   1.000000
  120       -1.278537   1.000000
  121       -1.227303   1.000000
  122       -0.989181   1.000000
  123       -0.985767   1.000000
  124       -0.803830   1.000005
  125       -0.753290   1.000023
  126       -0.649015   1.000417
  127       -0.591127   1.001592
  128       -0.516436   1.006692
  129       -0.372620   1.033859
  130       -0.326591   1.032855
  131       -0.193374   0.834504
  132       -0.138959   0.638737
  133       -0.033885   0.216875
  134       -0.033149   0.214378
  135        0.009908   0.090167
  136        0.067026  -0.004547
  137        0.081081  -0.016813
  138        0.187678  -0.029107
  139        0.197704  -0.026894
  140        0.410292  -0.000805
  141        0.446834  -0.000331
  142        0.491506  -0.000101
  143        0.546815  -0.000020
  144        0.580930  -0.000007
  145        0.688387  -0.000000
  146        0.777395  -0.000000
  147        0.784739  -0.000000
  148        0.813083  -0.000000
  149        0.869963  -0.000000
  150        0.917869  -0.000000
  151        0.963960  -0.000000
  152        1.018865  -0.000000
  153        1.036692  -0.000000
  154        1.059732  -0.000000
  155        1.090572  -0.000000
  156        1.177154  -0.000000
  157        1.198393  -0.000000
  158        1.243359  -0.000000
  159        1.272158  -0.000000
  160        1.285954  -0.000000
  161        1.328582  -0.000000
  162        1.349439  -0.000000
  163        1.365820  -0.000000
  164        1.405626  -0.000000
  165        1.458650  -0.000000
  166        1.511379  -0.000000
  167        1.537311  -0.000000
  168        1.554782  -0.000000

  0.2000000E+00  0.3742002E-15  0.1262379E-14  0.4444444E-01
    1      -14.057205   1.000000
    2      -13.131766   1.000000
    3      -12.880301   1.000000
    4      -12.331208   1.000000
    5      -12.138100   1.000000
    6      -12.083689   1.000000
    7      -11.565930   1.000000
    8      -11.504844   1.000000
    9      -11.386069   1.000000
   10      -11.334326   1.000000
   11      -11.128962   1.000000
   12      -11.106552   1.000000
   13      -10.864063   1.000000
   14      -10.674546   1.000000
   15      -10.584636   1.000000
   16      -10.346558   1.000000
   17      -10.311866   1.000000
   18      -10.030393   1.000000
   19       -9.904940   1.000000
   20       -9.844400   1.000000
   21       -9.674300   1.000000
   22       -9.656443   1.000000
   23       -9.352276   1.000000
   24       -9.346352   1.000000
   25       -9.073929   1.000000
   26       -8.765840   1.000000
   27       -8.510166   1.000000
   28       -8.313793   1.000000
   29       -8.275540   1.000000
   30       -8.191272   1.000000
   31       -8.164360   1.000000
   32       -8.085979   1.000000
   33       -7.658428   1.000000
   34       -7.497176   1.000000
   35       -7.315076   1.000000
   36       -7.297521   1.000000
   37       -7.151545   1.000000
   38       -7.067805   1.000000
   39       -6.965732   1.000000
   40       -6.870284   1.000000
   41       -6.817754   1.000000
   42       -6.742909   1.000000
   43       -6.677997   1.000000
   44       -6.565676   1.000000
   45       -6.403885   1.000000
   46       -6.396998   1.000000
   47       -6.155397   1.000000
   48       -6.103232   1.000000
   49       -6.079324   1.000000
   50       -6.045358   1.000000
   51       -5.770122   1.000000
   52       -5.704198   1.000000
   53       -5.664249   1.000000
   54       -5.619476   1.000000
   55       -5.543808   1.000000
   56       -5.474107   1.000000
   57       -5.383256   1.000000
   58       -5.300475   1.000000
   59       -5.174730   1.000000
   60       -5.157676   1.000000
   61       -5.136805   1.000000
   62       -4.984235   1.000000
   63       -4.873845   1.000000
   64       -4.845267   1.000000
   65       -4.732395   1.000000
   66       -4.715850   1.000000
   67       -4.637290   1.000000
   68       -4.609361   1.000000
   69       -4.459353   1.000000
   70       -4.348778   1.000000
   71       -4.343057   1.000000
   72       -4.322847   1.000000
   73       -4.251480   1.000000
   74       -4.194631   1.000000
   75       -4.192893   1.000000
   76       -4.118137   1.000000
   77       -4.041112   1.000000
   78       -4.007797   1.000000
   79       -3.934032   1.000000
   80       -3.902267   1.000000
   81       -3.845871   1.000000
   82       -3.749218   1.000000
   83       -3.682774   1.000000
   84       -3.636308   1.000000
   85       -3.528652   1.000000
   86       -3.498952   1.000000
   87       -3.410463   1.000000
   88       -3.323048   1.000000
   89       -3.274730   1.000000
   90       -3.191945   1.000000
   91       -3.084611   1.000000
   92       -3.038861   1.000000
   93       -3.031515   1.000000
   94       -2.905079   1.000000
   95       -2.854744   1.000000
   96       -2.773637   1.000000
   97       -2.703728   1.000000
   98       -2.652412   1.000000
   99       -2.638753   1.000000
  100       -2.557585   1.000000
  101       -2.532198   1.000000
  102       -2.501708   1.000000
  103       -2.416182   1.000000
  104       -2.355774   1.000000
  105       -2.293467   1.000000
  106       -2.254892   1.000000
  107       -2.187924   1.000000
  108       -2.138779   1.000000
  109       -2.097178   1.000000
  110       -1.948697   1.000000
  111       -1.904014   1.000000
  112       -1.896220   1.000000
  113       -1.860739   1.000000
  114       -1.734763   1.000000
  115       -1.717586   1.000000
  116       -1.628824   1.000000
  117       -1.423041   1.000000
  118       -1.378454   1.000000
  119       -1.311568   1.000000
  120       -1.308449   1.000000
  121       -1.248421   1.000000
  122       -1.057440   1.000000
  123       -0.998322   1.000000
  124       -0.844750   1.000001
  125       -0.814330   1.000003
  126       -0.700995   1.000106
  127       -0.689680   1.000145
  128       -0.603889   1.001205
  129       -0.405918   1.027595
  130       -0.355289   1.035376
  131       -0.220853   0.908925
  132       -0.210528   0.883160
  133       -0.077447   0.381907
  134       -0.063050   0.324143
  135        0.005193   0.101554
  136        0.060519   0.002460
  137        0.150862  -0.034981
  138        0.220215  -0.021712
  139        0.300775  -0.007195
  140        0.378816  -0.001626
  141        0.450517  -0.000302
  142        0.473501  -0.000165
  143        0.549165  -0.000019
  144        0.649396  -0.000001
  145        0.731036  -0.000000
  146        0.749067  -0.000000
  147        0.800189  -0.000000
  148        0.829928  -0.000000
  149        0.856430  -0.000000
  150        0.950506  -0.000000
  151        1.007279  -0.000000
  152        1.049086  -0.000000
  153        1.050124  -0.000000
  154        1.153153  -0.000000
  155        1.176404  -0.000000
  156        1.202701  -0.000000
  157        1.222327  -0.000000
  158        1.269205  -0.000000
  159        1.279579  -0.000000
  160        1.337636  -0.000000
  161        1.348919  -0.000000
  162        1.361118  -0.000000
  163        1.375161  -0.000000
  164        1.417531  -0.000000
  165        1.493666  -0.000000
  166        1.500478  -0.000000
  167        1.514300  -0.000000
  168        1.573320  -0.000000

  0.4000000E+00  0.3742002E-15  0.1262379E-14  0.4444444E-01
    1      -14.005131   1.000000
    2      -13.337514   1.000000
    3      -12.785432   1.000000
    4      -12.467154   1.000000
    5      -12.081435   1.000000
    6      -11.774461   1.000000
    7      -11.607877   1.000000
    8      -11.504674   1.000000
    9      -11.264094   1.000000
   10      -11.238390   1.000000
   11      -11.125105   1.000000
   12      -11.055407   1.000000
   13      -10.828290   1.000000
   14      -10.813581   1.000000
   15      -10.675316   1.000000
   16      -10.641045   1.000000
   17      -10.350200   1.000000
   18      -10.242986   1.000000
   19      -10.032012   1.000000
   20       -9.900140   1.000000
   21       -9.697910   1.000000
   22       -9.414004   1.000000
   23       -9.318063   1.000000
   24       -9.248091   1.000000
   25       -8.975455   1.000000
   26       -8.829484   1.000000
   27       -8.380385   1.000000
   28       -8.203138   1.000000
   29       -8.073738   1.000000
   30       -8.023828   1.000000
   31       -8.022893   1.000000
   32       -7.817822   1.000000
   33       -7.718419   1.000000
   34       -7.708532   1.000000
   35       -7.543801   1.000000
   36       -7.445278   1.000000
   37       -7.379056   1.000000
   38       -7.297699   1.000000
   39       -7.234239   1.000000
   40       -6.940494   1.000000
   41       -6.710143   1.000000
   42       -6.683287   1.000000
   43       -6.655061   1.000000
   44       -6.477990   1.000000
   45       -6.428116   1.000000
   46       -6.259888   1.000000
   47       -6.158583   1.000000
   48       -6.148841   1.000000
   49       -6.060239   1.000000
   50       -5.924530   1.000000
   51       -5.838589   1.000000
   52       -5.769480   1.000000
   53       -5.674167   1.000000
   54       -5.663442   1.000000
   55       -5.519626   1.000000
   56       -5.452616   1.000000
   57       -5.343884   1.000000
   58       -5.176612   1.000000
   59       -5.148573   1.000000
   60       -5.063603   1.000000
   61       -4.987596   1.000000
   62       -4.905187   1.000000
   63       -4.891941   1.000000
   64       -4.803026   1.000000
   65       -4.774962   1.000000
   66       -4.684821   1.000000
   67       -4.578727   1.000000
   68       -4.543568   1.000000
   69       -4.516013   1.000000
   70       -4.406308   1.000000
   71       -4.353166   1.000000
   72       -4.345012   1.000000
   73       -4.268457   1.000000
   74       -4.255786   1.000000
   75       -4.179600   1.000000
   76       -4.127210   1.000000
   77       -4.089684   1.000000
   78       -4.051447   1.000000
   79       -4.011691   1.000000
   80       -3.940790   1.000000
   81       -3.806805   1.000000
   82       -3.794408   1.000000
   83       -3.681502   1.000000
   84       -3.634932   1.000000
   85       -3.496113   1.000000
   86       -3.486435   1.000000
   87       -3.453590   1.000000
   88       -3.299479   1.000000
   89       -3.273489   1.000000
   90       -3.228969   1.000000
   91       -3.216794   1.000000
   92       -3.103134   1.000000
   93       -2.994985   1.000000
   94       -2.977717   1.000000
   95       -2.923924   1.000000
   96       -2.763568   1.000000
   97       -2.743784   1.000000
   98       -2.694516   1.000000
   99       -2.677589   1.000000
  100       -2.548664   1.000000
  101       -2.480143   1.000000
  102       -2.405886   1.000000
  103       -2.367161   1.000000
  104       -2.303849   1.000000
  105       -2.268798   1.000000
  106       -2.213193   1.000000
  107       -2.147264   1.000000
  108       -2.063215   1.000000
  109       -2.029670   1.000000
  110       -1.850379   1.000000
  111       -1.833423   1.000000
  112       -1.788415   1.000000
  113       -1.737364   1.000000
  114       -1.675580   1.000000
  115       -1.642493   1.000000
  116       -1.569376   1.000000
  117       -1.488576   1.000000
  118       -1.435215   1.000000
  119       -1.382368   1.000000
  120       -1.345194   1.000000
  121       -1.237557   1.000000
  122       -1.139909   1.000000
  123       -1.043370   1.000000
  124       -0.927259   1.000000
  125       -0.920678   1.000000
  126       -0.834037   1.000002
  127       -0.780906   1.000010
  128       -0.678093   1.000198
  129       -0.587093   1.001736
  130       -0.450829   1.017437
  131       -0.217549   0.900973
  132       -0.206983   0.873695
  133       -0.126172   0.586270
  134       -0.069167   0.348380
  135       -0.009481   0.140562
  136        0.048717   0.017493
  137        0.154057  -0.034699
  138        0.226041  -0.020387
  139        0.303989  -0.006819
  140        0.399077  -0.001041
  141        0.427071  -0.000540
  142        0.553284  -0.000016
  143        0.622905  -0.000002
  144        0.662077  -0.000000
  145        0.748413  -0.000000
  146        0.769859  -0.000000
  147        0.823235  -0.000000
  148        0.884053  -0.000000
  149        0.976169  -0.000000
  150        1.029100  -0.000000
  151        1.062052  -0.000000
  152        1.126253  -0.000000
  153        1.140877  -0.000000
  154        1.143363  -0.000000
  155        1.202007  -0.000000
  156        1.234370  -0.000000
  157        1.252143  -0.000000
  158        1.299785  -0.000000
  159        1.335852  -0.000000
  160        1.363952  -0.000000
  161        1.387114  -0.000000
  162        1.395604  -0.000000
  163        1.412282  -0.000000
  164        1.473282  -0.000000
  165        1.500014  -0.000000
  166        1.512748  -0.000000
  167        1.554001  -0.000000
  168        1.610354  -0.000000

  0.3742002E-15  0.1111111E+00  0.1262379E-14  0.4444444E-01
    1      -14.037830   1.000000
    2      -12.934798   1.000000
    3      -12.774043   1.000000
    4      -12.617879   1.000000
    5      -12.165658   1.000000
    6      -11.797758   1.000000
    7      -11.762308   1.000000
    8      -11.560872   1.000000
    9      -11.536904   1.000000
   10      -11.434121   1.000000
   11      -11.141218   1.000000
   12      -11.128205   1.000000
   13      -10.917572   1.000000
   14      -10.545803   1.000000
   15      -10.312289   1.000000
   16      -10.267431   1.000000
   17      -10.219964   1.000000
   18      -10.030977   1.000000
   19       -9.916731   1.000000
   20       -9.869030   1.000000
   21       -9.690736   1.000000
   22       -9.646712   1.000000
   23       -9.396542   1.000000
   24       -9.316640   1.000000
   25       -9.128211   1.000000
   26       -8.957920   1.000000
   27       -8.523142   1.000000
   28       -8.425056   1.000000
   29       -8.339394   1.000000
   30       -8.304332   1.000000
   31       -8.029014   1.000000
   32       -8.012725   1.000000
   33       -7.862499   1.000000
   34       -7.427789   1.000000
   35       -7.401015   1.000000
   36       -7.176444   1.000000
   37       -7.098581   1.000000
   38       -6.958616   1.000000
   39       -6.852998   1.000000
   40       -6.820850   1.000000
   41       -6.723234   1.000000
   42       -6.712172   1.000000
   43       -6.614040   1.000000
   44       -6.504341   1.000000
   45       -6.360611   1.000000
   46       -6.345470   1.000000
   47       -6.297747   1.000000
   48       -6.184727   1.000000
   49       -6.123395   1.000000
   50       -5.992461   1.000000
   51       -5.829257   1.000000
   52       -5.776053   1.000000
   53       -5.672661   1.000000
   54       -5.606251   1.000000
   55       -5.508714   1.000000
   56       -5.404003   1.000000
   57       -5.353194   1.000000
   58       -5.300317   1.000000
   59       -5.276201   1.000000
   60       -5.148794   1.000000
   61       -5.065671   1.000000
   62       -4.987108   1.000000
   63       -4.900677   1.000000
   64       -4.831525   1.000000
   65       -4.760168   1.000000
   66       -4.700315   1.000000
   67       -4.651781   1.000000
   68       -4.618529   1.000000
   69       -4.517723   1.000000
   70       -4.448083   1.000000
   71       -4.433013   1.000000
   72       -4.252276   1.000000
   73       -4.221945   1.000000
   74       -4.186089   1.000000
   75       -4.148050   1.000000
   76       -4.091461   1.000000
   77       -4.048999   1.000000
   78       -3.995965   1.000000
   79       -3.930741   1.000000
   80       -3.864300   1.000000
   81       -3.821927   1.000000
   82       -3.750198   1.000000
   83       -3.685937   1.000000
   84       -3.587713   1.000000
   85       -3.547385   1.000000
   86       -3.521498   1.000000
   87       -3.445781   1.000000
   88       -3.337492   1.000000
   89       -3.282607   1.000000
   90       -3.251706   1.000000
   91       -3.168303   1.000000
   92       -3.121929   1.000000
   93       -3.032476   1.000000
   94       -2.937363   1.000000
   95       -2.892937   1.000000
   96       -2.739065   1.000000
   97       -2.693589   1.000000
   98       -2.655098   1.000000
   99       -2.635698   1.000000
  100       -2.571491   1.000000
  101       -2.540384   1.000000
  102       -2.538322   1.000000
  103       -2.441846   1.000000
  104       -2.395443   1.000000
  105       -2.370532   1.000000
  106       -2.339566   1.000000
  107       -2.255457   1.000000
  108       -2.091995   1.000000
  109       -2.078575   1.000000
  110       -2.011392   1.000000
  111       -1.952560   1.000000
  112       -1.909519   1.000000
  113       -1.817264   1.000000
  114       -1.746547   1.000000
  115       -1.683728   1.000000
  116       -1.653153   1.000000
  117       -1.473307   1.000000
  118       -1.405601   1.000000
  119       -1.294199   1.000000
  120       -1.166984   1.000000
  121       -1.116712   1.000000
  122       -0.997523   1.000000
  123       -0.907580   1.000000
  124       -0.888802   1.000000
  125       -0.788128   1.000008
  126       -0.682212   1.000177
  127       -0.583833   1.001860
  128       -0.487082   1.010668
  129       -0.436474   1.020590
  130       -0.270505   0.995982
  131       -0.237329   0.944472
  132       -0.131196   0.607064
  133       -0.077460   0.381962
  134       -0.067174   0.340428
  135        0.021118   0.065347
  136        0.106374  -0.030299
  137        0.138285  -0.035454
  138        0.175812  -0.031499
  139        0.279046  -0.010154
  140        0.350801  -0.002896
  141        0.430624  -0.000496
  142        0.501454  -0.000076
  143        0.519249  -0.000046
  144        0.634477  -0.000001
  145        0.669347  -0.000000
  146        0.692706  -0.000000
  147        0.801166  -0.000000
  148        0.825149  -0.000000
  149        0.896293  -0.000000
  150        0.916974  -0.000000
  151        0.970040  -0.000000
  152        1.011212  -0.000000
  153        1.040498  -0.000000
  154        1.094246  -0.000000
  155        1.141829  -0.000000
  156        1.166115  -0.000000
  157        1.194855  -0.000000
  158        1.213416  -0.000000
  159        1.253745  -0.000000
  160        1.277077  -0.000000
  161        1.297674  -0.000000
  162        1.338132  -0.000000
  163        1.371684  -0.000000
  164        1.427090  -0.000000
  165        1.439946  -0.000000
  166        1.468981  -0.000000
  167        1.476251  -0.000000
  168        1.625400  -0.000000

  0.2000000E+00  0.1111111E+00  0.1262379E-14  0.8888889E-01
    1      -14.011891   1.000000
    2      -13.092670   1.000000
    3      -12.842154   1.000000
    4      -12.298616   1.000000
    5      -12.165672   1.000000
    6      -12.104957   1.000000
    7      -11.615766   1.000000
    8      -11.541368   1.000000
    9      -11.362829   1.000000
   10      -11.352813   1.000000
   11      -11.150304   1.000000
   12      -11.084302   1.000000
   13      -10.887711   1.000000
   14      -10.660206   1.000000
   15      -10.592030   1.000000
   16      -10.345304   1.000000
   17      -10.310830   1.000000
   18      -10.036012   1.000000
   19       -9.918577   1.000000
   20       -9.828678   1.000000
   21       -9.685541   1.000000
   22       -9.652107   1.000000
   23       -9.362612   1.000000
   24       -9.338173   1.000000
   25       -9.070802   1.000000
   26       -8.759337   1.000000
   27       -8.505686   1.000000
   28       -8.332694   1.000000
   29       -8.282681   1.000000
   30       -8.215966   1.000000
   31       -8.106704   1.000000
   32       -7.988676   1.000000
   33       -7.754800   1.000000
   34       -7.582856   1.000000
   35       -7.386477   1.000000
   36       -7.282319   1.000000
   37       -7.132698   1.000000
   38       -7.018661   1.000000
   39       -6.925675   1.000000
   40       -6.839086   1.000000
   41       -6.797933   1.000000
   42       -6.744615   1.000000
   43       -6.654842   1.000000
   44       -6.612290   1.000000
   45       -6.454215   1.000000
   46       -6.376567   1.000000
   47       -6.219100   1.000000
   48       -6.112854   1.000000
   49       -5.997607   1.000000
   50       -5.939346   1.000000
   51       -5.753881   1.000000
   52       -5.740471   1.000000
   53       -5.686204   1.000000
   54       -5.608850   1.000000
   55       -5.501281   1.000000
   56       -5.437973   1.000000
   57       -5.336293   1.000000
   58       -5.271354   1.000000
   59       -5.183940   1.000000
   60       -5.136520   1.000000
   61       -5.090086   1.000000
   62       -4.960429   1.000000
   63       -4.898283   1.000000
   64       -4.803460   1.000000
   65       -4.719687   1.000000
   66       -4.705458   1.000000
   67       -4.624805   1.000000
   68       -4.584496   1.000000
   69       -4.487105   1.000000
   70       -4.438268   1.000000
   71       -4.403736   1.000000
   72       -4.287962   1.000000
   73       -4.263763   1.000000
   74       -4.225102   1.000000
   75       -4.171491   1.000000
   76       -4.125019   1.000000
   77       -4.046221   1.000000
   78       -3.986538   1.000000
   79       -3.963255   1.000000
   80       -3.926984   1.000000
   81       -3.840212   1.000000
   82       -3.756716   1.000000
   83       -3.675078   1.000000
   84       -3.644893   1.000000
   85       -3.568125   1.000000
   86       -3.494747   1.000000
   87       -3.449106   1.000000
   88       -3.351481   1.000000
   89       -3.281106   1.000000
   90       -3.249815   1.000000
   91       -3.170203   1.000000
   92       -3.095898   1.000000
   93       -3.042591   1.000000
   94       -2.969276   1.000000
   95       -2.851843   1.000000
   96       -2.821903   1.000000
   97       -2.733063   1.000000
   98       -2.683526   1.000000
   99       -2.646351   1.000000
  100       -2.621416   1.000000
  101       -2.521210   1.000000
  102       -2.479398   1.000000
  103       -2.392249   1.000000
  104       -2.362942   1.000000
  105       -2.320417   1.000000
  106       -2.289412   1.000000
  107       -2.217667   1.000000
  108       -2.135101   1.000000
  109       -2.066899   1.000000
  110       -1.954546   1.000000
  111       -1.899647   1.000000
  112       -1.861337   1.000000
  113       -1.789577   1.000000
  114       -1.717843   1.000000
  115       -1.681131   1.000000
  116       -1.633631   1.000000
  117       -1.492559   1.000000
  118       -1.407553   1.000000
  119       -1.331002   1.000000
  120       -1.219777   1.000000
  121       -1.174448   1.000000
  122       -1.009061   1.000000
  123       -0.951917   1.000000
  124       -0.893917   1.000000
  125       -0.821471   1.000003
  126       -0.787519   1.000008
  127       -0.596716   1.001411
  128       -0.509033   1.007568
  129       -0.458742   1.015797
  130       -0.340029   1.034994
  131       -0.249215   0.965917
  132       -0.144782   0.662059
  133       -0.085457   0.414973
  134       -0.021457   0.176297
  135       -0.001312   0.118183
  136        0.039417   0.031569
  137        0.137314  -0.035443
  138        0.181466  -0.030399
  139        0.344332  -0.003286
  140        0.383312  -0.001476
  141        0.433995  -0.000456
  142        0.504213  -0.000071
  143        0.557216  -0.000014
  144        0.663997  -0.000000
  145        0.696090  -0.000000
  146        0.730474  -0.000000
  147        0.797604  -0.000000
  148        0.846588  -0.000000
  149        0.916637  -0.000000
  150        0.962521  -0.000000
  151        0.987824  -0.000000
  152        1.024041  -0.000000
  153        1.073041  -0.000000
  154        1.135932  -0.000000
  155        1.164967  -0.000000
  156        1.183259  -0.000000
  157        1.221416  -0.000000
  158        1.240863  -0.000000
  159        1.257407  -0.000000
  160        1.275724  -0.000000
  161        1.324102  -0.000000
  162        1.358022  -0.000000
  163        1.382017  -0.000000
  164        1.399919  -0.000000
  165        1.438524  -0.000000
  166        1.491560  -0.000000
  167        1.533615  -0.000000
  168        1.610714  -0.000000

  0.4000000E+00  0.1111111E+00  0.1262379E-14  0.8888889E-01
    1      -13.960342   1.000000
    2      -13.297041   1.000000
    3      -12.748430   1.000000
    4      -12.429578   1.000000
    5      -12.156155   1.000000
    6      -11.764861   1.000000
    7      -11.656567   1.000000
    8      -11.539202   1.000000
    9      -11.279681   1.000000
   10      -11.211915   1.000000
   11      -11.149910   1.000000
   12      -11.034445   1.000000
   13      -10.826389   1.000000
   14      -10.805624   1.000000
   15      -10.689914   1.000000
   16      -10.623366   1.000000
   17      -10.367575   1.000000
   18      -10.228616   1.000000
   19      -10.045400   1.000000
   20       -9.919411   1.000000
   21       -9.702302   1.000000
   22       -9.406834   1.000000
   23       -9.328714   1.000000
   24       -9.242155   1.000000
   25       -8.969364   1.000000
   26       -8.819661   1.000000
   27       -8.383796   1.000000
   28       -8.234333   1.000000
   29       -8.042964   1.000000
   30       -8.026495   1.000000
   31       -7.929008   1.000000
   32       -7.815390   1.000000
   33       -7.758160   1.000000
   34       -7.718477   1.000000
   35       -7.578716   1.000000
   36       -7.486466   1.000000
   37       -7.411805   1.000000
   38       -7.256481   1.000000
   39       -7.148736   1.000000
   40       -7.018174   1.000000
   41       -6.741962   1.000000
   42       -6.668284   1.000000
   43       -6.646755   1.000000
   44       -6.545433   1.000000
   45       -6.384573   1.000000
   46       -6.247242   1.000000
   47       -6.173647   1.000000
   48       -6.143867   1.000000
   49       -6.044368   1.000000
   50       -5.943127   1.000000
   51       -5.797528   1.000000