 running on   72 total cores
 distrk:  each k-point on   72 cores,    1 groups
 distr:  one band on    9 cores,    8 groups
 using from now: INCAR     
 vasp.5.4.4.18Apr17-6-g9f103f2a35 (build Dec  7 2020 12:43:57) complex           
 POSCAR found type information on POSCAR  Mo V  B 
 POSCAR found :  3 types and      69 ions
 scaLAPACK will be used
 LDA part: xc-table for Pade appr. of Perdew
 POSCAR, INCAR and KPOINTS ok, starting setup
 resort distribution
 resort distribution
 resort distribution
 resort distribution
 resort distribution
 resort distribution
 resort distribution
 resort distribution
 resort distribution
 resort distribution
 resort distribution
 resort distribution
 resort distribution
 resort distribution
 resort distribution
 resort distribution
 resort distribution
 resort distribution
 resort distribution
 resort distribution
 resort distribution
 resort distribution
 resort distribution
 resort distribution
 resort distribution
 resort distribution
 resort distribution
 resort distribution
 resort distribution
 resort distribution
 resort distribution
 resort distribution
 resort distribution
 resort distribution
 resort distribution
 resort distribution
 resort distribution
 resort distribution
 resort distribution
 resort distribution
 resort distribution
 resort distribution
 resort distribution
 resort distribution
 resort distribution
 resort distribution
 resort distribution
 resort distribution
 resort distribution
 resort distribution
 resort distribution
 resort distribution
 resort distribution
 resort distribution
 resort distribution
 resort distribution
 resort distribution
 resort distribution
 resort distribution
 resort distribution
 resort distribution
 resort distribution
 resort distribution
 resort distribution
 resort distribution
 resort distribution
 resort distribution
 resort distribution
 resort distribution
 resort distribution
 resort distribution
 resort distribution
 FFT: planning ...
 WAVECAR not read
 augmentation electrons   264.02299921076349     
 soft         electrons   0.0000000000000000     
 augmentation electrons   264.02299921076349     
 soft         electrons   0.0000000000000000     
 augmentation electrons   264.02299921076349     
 soft         electrons   0.0000000000000000     
 augmentation electrons   264.02299921076349     
 soft         electrons   0.0000000000000000     
 augmentation electrons   264.02299921076349     
 soft         electrons   0.0000000000000000     
 augmentation electrons   264.02299921076349     
 soft         electrons   0.0000000000000000     
 augmentation electrons   264.02299921076349     
 soft         electrons   0.0000000000000000     
 augmentation electrons   264.02299921076349     
 soft         electrons   0.0000000000000000     
 augmentation electrons   264.02299921076349     
 augmentation electrons   264.02299921076349     
 soft         electrons   0.0000000000000000     
 augmentation electrons   264.02299921076349     
 soft         electrons   0.0000000000000000     
 augmentation electrons   264.02299921076349     
 soft         electrons   0.0000000000000000     
 augmentation electrons   264.02299921076349     
 soft         electrons   0.0000000000000000     
 augmentation electrons   264.02299921076349     
 soft         electrons   0.0000000000000000     
 augmentation electrons   264.02299921076349     
 soft         electrons   0.0000000000000000     
 augmentation electrons   264.02299921076349     
 soft         electrons   0.0000000000000000     
 augmentation electrons   264.02299921076349     
 soft         electrons   0.0000000000000000     
 augmentation electrons   264.02299921076349     
 soft         electrons   0.0000000000000000     
 augmentation electrons   264.02299921076349     
 soft         electrons   0.0000000000000000     
 augmentation electrons   264.02299921076349     
 soft         electrons   0.0000000000000000     
 augmentation electrons   264.02299921076349     
 soft         electrons   0.0000000000000000     
 augmentation electrons   264.02299921076349     
 soft         electrons   0.0000000000000000     
 augmentation electrons   264.02299921076349     
 soft         electrons   0.0000000000000000     
 augmentation electrons   264.02299921076349     
 soft         electrons   0.0000000000000000     
 augmentation electrons   264.02299921076349     
 soft         electrons   0.0000000000000000     
 augmentation electrons   264.02299921076349     
 soft         electrons   0.0000000000000000     
 augmentation electrons   264.02299921076349     
 soft         electrons   0.0000000000000000     
 augmentation electrons   264.02299921076349     
 soft         electrons   0.0000000000000000     
 augmentation electrons   264.02299921076349     
 soft         electrons   0.0000000000000000     
 augmentation electrons   264.02299921076349     
 soft         electrons   0.0000000000000000     
 augmentation electrons   264.02299921076349     
 soft         electrons   0.0000000000000000     
 augmentation electrons   264.02299921076349     
 soft         electrons   0.0000000000000000     
 augmentation electrons   264.02299921076349     
 soft         electrons   0.0000000000000000     
 augmentation electrons   264.02299921076349     
 soft         electrons   0.0000000000000000     
 augmentation electrons   264.02299921076349     
 soft         electrons   0.0000000000000000     
 augmentation electrons   264.02299921076349     
 soft         electrons   0.0000000000000000     
 augmentation electrons   264.02299921076349     
 soft         electrons   0.0000000000000000     
 augmentation electrons   264.02299921076349     
 soft         electrons   0.0000000000000000     
 augmentation electrons   264.02299921076349     
 soft         electrons   0.0000000000000000     
 augmentation electrons   264.02299921076349     
 soft         electrons   0.0000000000000000     
 augmentation electrons   264.02299921076349     
 soft         electrons   0.0000000000000000     
 augmentation electrons   264.02299921076349     
 soft         electrons   0.0000000000000000     
 augmentation electrons   264.02299921076349     
 soft         electrons   0.0000000000000000     
 augmentation electrons   264.02299921076349     
 soft         electrons   0.0000000000000000     
 augmentation electrons   264.02299921076349     
 soft         electrons   0.0000000000000000     
 augmentation electrons   264.02299921076349     
 soft         electrons   0.0000000000000000     
 augmentation electrons   264.02299921076349     
 soft         electrons   0.0000000000000000     
 augmentation electrons   264.02299921076349     
 soft         electrons   0.0000000000000000     
 augmentation electrons   264.02299921076349     
 soft         electrons   0.0000000000000000     
 augmentation electrons   264.02299921076349     
 soft         electrons   0.0000000000000000     
 augmentation electrons   264.02299921076349     
 soft         electrons   0.0000000000000000     
 augmentation electrons   264.02299921076349     
 soft         electrons   0.0000000000000000     
 augmentation electrons   264.02299921076349     
 soft         electrons   0.0000000000000000     
 augmentation electrons   264.02299921076349     
 soft         electrons   0.0000000000000000     
 augmentation electrons   264.02299921076349     
 soft         electrons   0.0000000000000000     
 augmentation electrons   264.02299921076349     
 soft         electrons   0.0000000000000000     
 augmentation electrons   264.02299921076349     
 soft         electrons   0.0000000000000000     
 augmentation electrons   264.02299921076349     
 soft         electrons   0.0000000000000000     
 augmentation electrons   264.02299921076349     
 soft         electrons   0.0000000000000000     
 augmentation electrons   264.02299921076349     
 soft         electrons   0.0000000000000000     
 soft         electrons   0.0000000000000000     
 augmentation electrons   264.02299921076349     
 soft         electrons   0.0000000000000000     
 augmentation electrons   264.02299921076349     
 soft         electrons   0.0000000000000000     
 augmentation electrons   264.02299921076349     
 soft         electrons   0.0000000000000000     
 augmentation electrons   264.02299921076349     
 soft         electrons   0.0000000000000000     
 augmentation electrons   264.02299921076349     
 soft         electrons   0.0000000000000000     
 augmentation electrons   264.02299921076349     
 soft         electrons   0.0000000000000000     
 augmentation electrons   264.02299921076349     
 soft         electrons   0.0000000000000000     
 augmentation electrons   264.02299921076349     
 soft         electrons   0.0000000000000000     
 augmentation electrons   264.02299921076349     
 soft         electrons   0.0000000000000000     
 augmentation electrons   264.02299921076349     
 soft         electrons   0.0000000000000000     
 augmentation electrons   264.02299921076349     
 soft         electrons   0.0000000000000000     
 augmentation electrons   264.02299921076349     
 soft         electrons   0.0000000000000000     
 total        electrons   264.02299921076349     
 total        electrons   264.02299921076349     
 total        electrons   264.02299921076349     
 total        electrons   264.02299921076349     
 total        electrons   264.02299921076349     
 total        electrons   264.02299921076349     
 total        electrons   264.02299921076349     
 total        electrons   264.02299921076349     
 total        electrons   264.02299921076349     
 total        electrons   264.02299921076349     
 total        electrons   264.02299921076349     
 total        electrons   264.02299921076349     
 total        electrons   264.02299921076349     
 total        electrons   264.02299921076349     
 total        electrons   264.02299921076349     
 total        electrons   264.02299921076349     
 total        electrons   264.02299921076349     
 total        electrons   264.02299921076349     
 total        electrons   264.02299921076349     
 total        electrons   264.02299921076349     
 total        electrons   264.02299921076349     
 total        electrons   264.02299921076349     
 total        electrons   264.02299921076349     
 total        electrons   264.02299921076349     
 total        electrons   264.02299921076349     
 total        electrons   264.02299921076349     
 total        electrons   264.02299921076349     
 total        electrons   264.02299921076349     
 total        electrons   264.02299921076349     
 total        electrons   264.02299921076349     
 total        electrons   264.02299921076349     
 total        electrons   264.02299921076349     
 total        electrons   264.02299921076349     
 total        electrons   264.02299921076349     
 total        electrons   264.02299921076349     
 total        electrons   264.02299921076349     
 total        electrons   264.02299921076349     
 total        electrons   264.02299921076349     
 total        electrons   264.02299921076349     
 total        electrons   264.02299921076349     
 total        electrons   264.02299921076349     
 total        electrons   264.02299921076349     
 total        electrons   264.02299921076349     
 total        electrons   264.02299921076349     
 total        electrons   264.02299921076349     
 total        electrons   264.02299921076349     
 total        electrons   264.02299921076349     
 total        electrons   264.02299921076349     
 total        electrons   264.02299921076349     
 total        electrons   264.02299921076349     
 total        electrons   264.02299921076349     
 total        electrons   264.02299921076349     
 total        electrons   264.02299921076349     
 total        electrons   264.02299921076349     
 total        electrons   264.02299921076349     
 total        electrons   264.02299921076349     
 total        electrons   264.02299921076349     
 total        electrons   264.02299921076349     
 total        electrons   264.02299921076349     
 total        electrons   264.02299921076349     
 total        electrons   264.02299921076349     
 total        electrons   264.02299921076349     
 total        electrons   264.02299921076349     
 total        electrons   264.02299921076349     
 total        electrons   264.02299921076349     
 total        electrons   264.02299921076349     
 total        electrons   264.02299921076349     
 total        electrons   264.02299921076349     
 total        electrons   264.02299921076349     
 total        electrons   264.02299921076349     
 total        electrons   264.02299921076349     
 total        electrons   264.02299921076349     
 augmentation electrons   890.18181286690151     
 soft         electrons   0.0000000000000000     
 augmentation electrons   890.18181286690151     
 soft         electrons   0.0000000000000000     
 total        electrons   890.18181286690151     
 augmentation electrons   890.18181286690151     
 soft         electrons   0.0000000000000000     
 total        electrons   890.18181286690151     
 augmentation electrons   890.18181286690151     
 soft         electrons   0.0000000000000000     
 augmentation electrons   890.18181286690151     
 soft         electrons   0.0000000000000000     
 augmentation electrons   890.18181286690151     
 soft         electrons   0.0000000000000000     
 total        electrons   890.18181286690151     
 augmentation electrons   890.18181286690151     
 soft         electrons   0.0000000000000000     
 augmentation electrons   890.18181286690151     
 soft         electrons   0.0000000000000000     
 total        electrons   890.18181286690151     
 augmentation electrons   890.18181286690151     
 soft         electrons   0.0000000000000000     
 augmentation electrons   890.18181286690151     
 soft         electrons   0.0000000000000000     
 total        electrons   890.18181286690151     
 augmentation electrons   890.18181286690151     
 soft         electrons   0.0000000000000000     
 total        electrons   890.18181286690151     
 augmentation electrons   890.18181286690151     
 soft         electrons   0.0000000000000000     
 total        electrons   890.18181286690151     
 augmentation electrons   890.18181286690151     
 soft         electrons   0.0000000000000000     
 augmentation electrons   890.18181286690151     
 soft         electrons   0.0000000000000000     
 augmentation electrons   890.18181286690151     
 soft         electrons   0.0000000000000000     
 augmentation electrons   890.18181286690151     
 soft         electrons   0.0000000000000000     
 total        electrons   890.18181286690151     
 augmentation electrons   890.18181286690151     
 soft         electrons   0.0000000000000000     
 total        electrons   890.18181286690151     
 augmentation electrons   890.18181286690151     
 soft         electrons   0.0000000000000000     
 augmentation electrons   890.18181286690151     
 soft         electrons   0.0000000000000000     
 augmentation electrons   890.18181286690151     
 soft         electrons   0.0000000000000000     
 augmentation electrons   890.18181286690151     
 soft         electrons   0.0000000000000000     
 total        electrons   890.18181286690151     
 augmentation electrons   890.18181286690151     
 soft         electrons   0.0000000000000000     
 total        electrons   890.18181286690151     
 augmentation electrons   890.18181286690151     
 soft         electrons   0.0000000000000000     
 total        electrons   890.18181286690151     
 augmentation electrons   890.18181286690151     
 soft         electrons   0.0000000000000000     
 augmentation electrons   890.18181286690151     
 soft         electrons   0.0000000000000000     
 augmentation electrons   890.18181286690151     
 soft         electrons   0.0000000000000000     
 augmentation electrons   890.18181286690151     
 soft         electrons   0.0000000000000000     
 total        electrons   890.18181286690151     
 augmentation electrons   890.18181286690151     
 soft         electrons   0.0000000000000000     
 total        electrons   890.18181286690151     
 augmentation electrons   890.18181286690151     
 soft         electrons   0.0000000000000000     
 augmentation electrons   890.18181286690151     
 soft         electrons   0.0000000000000000     
 augmentation electrons   890.18181286690151     
 soft         electrons   0.0000000000000000     
 augmentation electrons   890.18181286690151     
 soft         electrons   0.0000000000000000     
 total        electrons   890.18181286690151     
 augmentation electrons   890.18181286690151     
 soft         electrons   0.0000000000000000     
 total        electrons   890.18181286690151     
 augmentation electrons   890.18181286690151     
 soft         electrons   0.0000000000000000     
 augmentation electrons   890.18181286690151     
 soft         electrons   0.0000000000000000     
 total        electrons   890.18181286690151     
 augmentation electrons   890.18181286690151     
 soft         electrons   0.0000000000000000     
 total        electrons   890.18181286690151     
 augmentation electrons   890.18181286690151     
 soft         electrons   0.0000000000000000     
 augmentation electrons   890.18181286690151     
 soft         electrons   0.0000000000000000     
 total        electrons   890.18181286690151     
 augmentation electrons   890.18181286690151     
 soft         electrons   0.0000000000000000     
 total        electrons   890.18181286690151     
 augmentation electrons   890.18181286690151     
 soft         electrons   0.0000000000000000     
 total        electrons   890.18181286690151     
 augmentation electrons   890.18181286690151     
 soft         electrons   0.0000000000000000     
 augmentation electrons   890.18181286690151     
 soft         electrons   0.0000000000000000     
 total        electrons   890.18181286690151     
 augmentation electrons   890.18181286690151     
 soft         electrons   0.0000000000000000     
 total        electrons   890.18181286690151     
 augmentation electrons   890.18181286690151     
 soft         electrons   0.0000000000000000     
 augmentation electrons   890.18181286690151     
 soft         electrons   0.0000000000000000     
 augmentation electrons   890.18181286690151     
 soft         electrons   0.0000000000000000     
 total        electrons   890.18181286690151     
 augmentation electrons   890.18181286690151     
 soft         electrons   0.0000000000000000     
 augmentation electrons   890.18181286690151     
 soft         electrons   0.0000000000000000     
 augmentation electrons   890.18181286690151     
 soft         electrons   0.0000000000000000     
 total        electrons   890.18181286690151     
 augmentation electrons   890.18181286690151     
 soft         electrons   0.0000000000000000     
 augmentation electrons   890.18181286690151     
 soft         electrons   0.0000000000000000     
 augmentation electrons   890.18181286690151     
 soft         electrons   0.0000000000000000     
 augmentation electrons   890.18181286690151     
 soft         electrons   0.0000000000000000     
 total        electrons   890.18181286690151     
 augmentation electrons   890.18181286690151     
 soft         electrons   0.0000000000000000     
 augmentation electrons   890.18181286690151     
 soft         electrons   0.0000000000000000     
 total        electrons   890.18181286690151     
 augmentation electrons   890.18181286690151     
 soft         electrons   0.0000000000000000     
 total        electrons   890.18181286690151     
 augmentation electrons   890.18181286690151     
 soft         electrons   0.0000000000000000     
 total        electrons   890.18181286690151     
 augmentation electrons   890.18181286690151     
 soft         electrons   0.0000000000000000     
 total        electrons   890.18181286690151     
 augmentation electrons   890.18181286690151     
 soft         electrons   0.0000000000000000     
 total        electrons   890.18181286690151     
 augmentation electrons   890.18181286690151     
 soft         electrons   0.0000000000000000     
 augmentation electrons   890.18181286690151     
 soft         electrons   0.0000000000000000     
 augmentation electrons   890.18181286690151     
 soft         electrons   0.0000000000000000     
 total        electrons   890.18181286690151     
 augmentation electrons   890.18181286690151     
 soft         electrons   0.0000000000000000     
 augmentation electrons   890.18181286690151     
 soft         electrons   0.0000000000000000     
 total        electrons   890.18181286690151     
 augmentation electrons   890.18181286690151     
 soft         electrons   0.0000000000000000     
 total        electrons   890.18181286690151     
 augmentation electrons   890.18181286690151     
 soft         electrons   0.0000000000000000     
 total        electrons   890.18181286690151     
 augmentation electrons   890.18181286690151     
 soft         electrons   0.0000000000000000     
 augmentation electrons   890.18181286690151     
 soft         electrons   0.0000000000000000     
 augmentation electrons   890.18181286690151     
 soft         electrons   0.0000000000000000     
 augmentation electrons   890.18181286690151     
 soft         electrons   0.0000000000000000     
 augmentation electrons   890.18181286690151     
 soft         electrons   0.0000000000000000     
 augmentation electrons   890.18181286690151     
 soft         electrons   0.0000000000000000     
 total        electrons   890.18181286690151     
 total        electrons   890.18181286690151     
 total        electrons   890.18181286690151     
 total        electrons   890.18181286690151     
 total        electrons   890.18181286690151     
 total        electrons   890.18181286690151     
 total        electrons   890.18181286690151     
 total        electrons   890.18181286690151     
 total        electrons   890.18181286690151     
 total        electrons   890.18181286690151     
 total        electrons   890.18181286690151     
 total        electrons   890.18181286690151     
 total        electrons   890.18181286690151     
 total        electrons   890.18181286690151     
 total        electrons   890.18181286690151     
 total        electrons   890.18181286690151     
 total        electrons   890.18181286690151     
 total        electrons   890.18181286690151     
 total        electrons   890.18181286690151     
 total        electrons   890.18181286690151     
 total        electrons   890.18181286690151     
 total        electrons   890.18181286690151     
 total        electrons   890.18181286690151     
 total        electrons   890.18181286690151     
 total        electrons   890.18181286690151     
 total        electrons   890.18181286690151     
 total        electrons   890.18181286690151     
 total        electrons   890.18181286690151     
 total        electrons   890.18181286690151     
 total        electrons   890.18181286690151     
 total        electrons   890.18181286690151     
 total        electrons   890.18181286690151     
 total        electrons   890.18181286690151     
 total        electrons   890.18181286690151     
 total        electrons   890.18181286690151     
 total        electrons   890.18181286690151     
 total        electrons   890.18181286690151     
 entering main loop
       N       E                     dE             d eps       ncg     rms          rms(c)
DAV:   1     0.231434640366E+04    0.23143E+04   -0.94476E+04  5040   0.128E+03
DAV:   2    -0.185318974822E+03   -0.24997E+04   -0.23264E+04  5864   0.311E+02
DAV:   3    -0.615348887129E+03   -0.43003E+03   -0.41198E+03  7104   0.149E+02
DAV:   4    -0.652265845137E+03   -0.36917E+02   -0.35532E+02  8144   0.488E+01
DAV:   5    -0.654553066617E+03   -0.22872E+01   -0.22085E+01  8568   0.119E+01    0.136E+02
RMM:   6    -0.598933802130E+03    0.55619E+02   -0.12303E+03  7508   0.986E+01    0.662E+01
RMM:   7    -0.683089228188E+03   -0.84155E+02   -0.50837E+02  6377   0.779E+01    0.493E+01
RMM:   8    -0.582833590147E+03    0.10026E+03   -0.15094E+02  6860   0.273E+01    0.337E+01
RMM:   9    -0.552340115591E+03    0.30493E+02   -0.45015E+01  5275   0.239E+01    0.235E+01
RMM:  10    -0.545677806319E+03    0.66623E+01   -0.39019E+01  6916   0.116E+01    0.166E+01
RMM:  11    -0.545042672693E+03    0.63513E+00   -0.47147E+00  5871   0.662E+00    0.152E+01
RMM:  12    -0.544917991117E+03    0.12468E+00   -0.28788E+00  6548   0.340E+00    0.131E+01
RMM:  13    -0.544397391448E+03    0.52060E+00   -0.99301E-01  6014   0.258E+00    0.109E+01
RMM:  14    -0.544568807510E+03   -0.17142E+00   -0.33159E+00  5365   0.579E+00    0.869E+00
RMM:  15    -0.544282484825E+03    0.28632E+00   -0.22761E+00  5208   0.514E+00    0.694E+00
RMM:  16    -0.543898982683E+03    0.38350E+00   -0.10433E+00  5904   0.300E+00    0.375E+00
RMM:  17    -0.543796477748E+03    0.10250E+00   -0.48426E-01  5916   0.176E+00    0.183E+00
RMM:  18    -0.543786665515E+03    0.98122E-02   -0.23003E-01  6467   0.118E+00    0.121E+00
RMM:  19    -0.543785464899E+03    0.12006E-02   -0.14762E-01  6101   0.921E-01    0.114E+00
RMM:  20    -0.543772985158E+03    0.12480E-01   -0.49737E-02  5527   0.639E-01    0.603E-01
RMM:  21    -0.543770622403E+03    0.23628E-02   -0.36957E-02  6800   0.351E-01    0.478E-01
RMM:  22    -0.543770104100E+03    0.51830E-03   -0.12489E-02  6000   0.261E-01    0.282E-01
RMM:  23    -0.543771736906E+03   -0.16328E-02   -0.71105E-03  6727   0.181E-01    0.319E-01
RMM:  24    -0.543771739269E+03   -0.23628E-05   -0.26443E-03  6712   0.975E-02    0.121E-01
RMM:  25    -0.543772643288E+03   -0.90402E-03   -0.20217E-03  6908   0.811E-02    0.977E-02
RMM:  26    -0.543773557093E+03   -0.91381E-03   -0.71202E-04  6931   0.478E-02    0.688E-02
RMM:  27    -0.543774154805E+03   -0.59771E-03   -0.27376E-04  6709   0.280E-02    0.440E-02
RMM:  28    -0.543775074201E+03   -0.91940E-03   -0.32139E-04  6657   0.313E-02    0.319E-02
RMM:  29    -0.543775603398E+03   -0.52920E-03   -0.17656E-04  6551   0.240E-02    0.345E-02
RMM:  30    -0.543775780450E+03   -0.17705E-03   -0.93940E-05  6300   0.171E-02    0.154E-02
RMM:  31    -0.543775913267E+03   -0.13282E-03   -0.63881E-05  6152   0.127E-02    0.240E-02
RMM:  32    -0.543776008255E+03   -0.94988E-04   -0.22303E-05  4605   0.120E-02    0.114E-02
RMM:  33    -0.543776115367E+03   -0.10711E-03   -0.15757E-05  4198   0.866E-03    0.763E-03
RMM:  34    -0.543776265852E+03   -0.15048E-03   -0.16409E-05  4313   0.131E-02    0.229E-02
RMM:  35    -0.543776344956E+03   -0.79104E-04   -0.68813E-06  3795   0.780E-03    0.451E-03
RMM:  36    -0.543776437870E+03   -0.92915E-04   -0.72176E-06  3783   0.320E-03    0.579E-03
RMM:  37    -0.543776469973E+03   -0.32102E-04   -0.26947E-06  3508   0.491E-03    0.226E-03
RMM:  38    -0.543776500793E+03   -0.30821E-04   -0.30106E-06  3485   0.305E-03    0.261E-03
RMM:  39    -0.543776504073E+03   -0.32796E-05   -0.30875E-07  3046   0.274E-03    0.925E-04
RMM:  40    -0.543776510791E+03   -0.67186E-05   -0.47339E-07  2838   0.177E-03    0.993E-04
RMM:  41    -0.543776514059E+03   -0.32671E-05   -0.19489E-07  2303   0.149E-03    0.308E-04
RMM:  42    -0.543776515893E+03   -0.18348E-05   -0.11600E-07  2062   0.110E-03    0.400E-04
RMM:  43    -0.543776516513E+03   -0.62016E-06   -0.12034E-08  1943   0.109E-03
   1 F= -.54377652E+03 E0= -.54376062E+03  d E =-.543777E+03
 curvature:   0.00 expect dE= 0.000E+00 dE for cont linesearch  0.000E+00
 trial: gam= 0.00000 g(F)=  0.181E+01 g(S)=  0.000E+00 ort = 0.000E+00 (trialstep = 0.100E+01)
 search vector abs. value=  0.181E+01
 bond charge predicted
       N       E                     dE             d eps       ncg     rms          rms(c)
DAV:   1    -0.544585222007E+03   -0.80871E+00   -0.12317E+02  5056   0.246E+01    0.552E+00
RMM:   2    -0.546470053187E+03   -0.18848E+01   -0.55946E+00  6819   0.639E+00    0.103E+01
RMM:   3    -0.544938296810E+03    0.15318E+01   -0.11978E+00  5568   0.398E+00    0.403E+00
RMM:   4    -0.545385596877E+03   -0.44730E+00   -0.21629E+00  5869   0.385E+00    0.665E+00
RMM:   5    -0.544855057174E+03    0.53054E+00   -0.89924E-01  5652   0.316E+00    0.301E+00
RMM:   6    -0.544752932574E+03    0.10212E+00   -0.31022E-01  5545   0.195E+00    0.141E+00
RMM:   7    -0.544737219736E+03    0.15713E-01   -0.13675E-01  6624   0.783E-01    0.722E-01
RMM:   8    -0.544732129413E+03    0.50903E-02   -0.33597E-02  6876   0.374E-01    0.416E-01
RMM:   9    -0.544731708544E+03    0.42087E-03   -0.11989E-02  5608   0.329E-01    0.329E-01
RMM:  10    -0.544731050042E+03    0.65850E-03   -0.60397E-03  6299   0.206E-01    0.158E-01
RMM:  11    -0.544731030300E+03    0.19741E-04   -0.28383E-03  6778   0.107E-01    0.129E-01
RMM:  12    -0.544730982019E+03    0.48281E-04   -0.91445E-04  5464   0.882E-02    0.830E-02
RMM:  13    -0.544731000279E+03   -0.18260E-04   -0.51691E-04  6764   0.465E-02    0.439E-02
RMM:  14    -0.544731055754E+03   -0.55475E-04   -0.22204E-04  6202   0.352E-02    0.430E-02
RMM:  15    -0.544731086357E+03   -0.30603E-04   -0.73890E-05  5690   0.233E-02    0.231E-02
RMM:  16    -0.544731116716E+03   -0.30359E-04   -0.45509E-05  5585   0.146E-02    0.177E-02
RMM:  17    -0.544731141182E+03   -0.24466E-04   -0.21616E-05  4748   0.125E-02    0.878E-03
RMM:  18    -0.544731173318E+03   -0.32136E-04   -0.14888E-05  4870   0.768E-03    0.486E-03
RMM:  19    -0.544731206626E+03   -0.33309E-04   -0.52619E-06  3822   0.450E-03    0.328E-03
RMM:  20    -0.544731231923E+03   -0.25297E-04   -0.28883E-06  3467   0.351E-03    0.232E-03
RMM:  21    -0.544731266542E+03   -0.34619E-04   -0.48818E-06  3558   0.325E-03    0.191E-03
RMM:  22    -0.544731290433E+03   -0.23890E-04   -0.40140E-06  3525   0.313E-03    0.133E-03
RMM:  23    -0.544731312398E+03   -0.21966E-04   -0.51706E-06  3498   0.280E-03    0.123E-03
RMM:  24    -0.544731316421E+03   -0.40228E-05   -0.89500E-07  2743   0.244E-03    0.832E-04
RMM:  25    -0.544731321545E+03   -0.51242E-05   -0.10983E-06  2968   0.166E-03    0.609E-04
RMM:  26    -0.544731323676E+03   -0.21308E-05   -0.38700E-07  2678   0.180E-03    0.366E-04
RMM:  27    -0.544731324942E+03   -0.12660E-05   -0.27579E-07  1841   0.100E-03    0.265E-04
RMM:  28    -0.544731326329E+03   -0.13864E-05   -0.29137E-07  1914   0.112E-03    0.281E-04
RMM:  29    -0.544731326668E+03   -0.33973E-06   -0.15589E-07  1585   0.877E-04
   2 F= -.54473133E+03 E0= -.54471765E+03  d E =-.954810E+00
 trial-energy change:   -0.954810  1 .order   -0.922926   -1.810132   -0.035721
 step:   1.0181(harm=  1.0201)  dis= 0.04343  next Energy=  -544.731651 (dE=-0.955E+00)
 bond charge predicted
       N       E                     dE             d eps       ncg     rms          rms(c)
DAV:   1    -0.544731638635E+03   -0.31231E-03   -0.40853E-02  5632   0.440E-01    0.105E-01
RMM:   2    -0.544733079260E+03   -0.14406E-02   -0.33322E-03  6702   0.146E-01    0.341E-01
RMM:   3    -0.544731675411E+03    0.14038E-02   -0.79267E-04  5407   0.100E-01    0.689E-02
RMM:   4    -0.544731863792E+03   -0.18838E-03   -0.10409E-03  6421   0.704E-02    0.114E-01
RMM:   5    -0.544731741715E+03    0.12208E-03   -0.38581E-04  5826   0.600E-02    0.836E-02
RMM:   6    -0.544731665933E+03    0.75782E-04   -0.16104E-04  5447   0.442E-02    0.293E-02
RMM:   7    -0.544731657717E+03    0.82155E-05   -0.56567E-05  6123   0.151E-02    0.140E-02
RMM:   8    -0.544731656447E+03    0.12698E-05   -0.11627E-05  4301   0.104E-02    0.962E-03
RMM:   9    -0.544731655962E+03    0.48542E-06   -0.50549E-06  3672   0.734E-03
   3 F= -.54473166E+03 E0= -.54471804E+03  d E =-.955139E+00
 curvature:  -0.51 expect dE=-0.188E+00 dE for cont linesearch -0.290E-07
 trial: gam= 0.20548 g(F)=  0.372E+00 g(S)=  0.000E+00 ort =-0.322E-03 (trialstep = 0.100E+01)
 search vector abs. value=  0.448E+00
 bond charge predicted
       N       E                     dE             d eps       ncg     rms          rms(c)
DAV:   1    -0.544862504225E+03   -0.13085E+00   -0.23955E+01  5040   0.114E+01    0.216E+00
RMM:   2    -0.544998592251E+03   -0.13609E+00   -0.86622E-01  6303   0.292E+00    0.269E+00
RMM:   3    -0.544997173123E+03    0.14191E-02   -0.26569E-01  5877   0.177E+00    0.253E+00
RMM:   4    -0.544978800903E+03    0.18372E-01   -0.20083E-01  5762   0.136E+00    0.251E+00
RMM:   5    -0.544905108578E+03    0.73692E-01   -0.88799E-02  5303   0.113E+00    0.833E-01
RMM:   6    -0.544901575044E+03    0.35335E-02   -0.37261E-02  5796   0.589E-01    0.660E-01
RMM:   7    -0.544896943423E+03    0.46316E-02   -0.14565E-02  5533   0.409E-01    0.244E-01
RMM:   8    -0.544896630632E+03    0.31279E-03   -0.64975E-03  6751   0.169E-01    0.123E-01
RMM:   9    -0.544896646956E+03   -0.16324E-04   -0.24283E-03  6478   0.117E-01    0.120E-01
RMM:  10    -0.544896535891E+03    0.11106E-03   -0.75159E-04  5446   0.814E-02    0.568E-02
RMM:  11    -0.544896562050E+03   -0.26158E-04   -0.43382E-04  6869   0.375E-02    0.409E-02
RMM:  12    -0.544896584883E+03   -0.22833E-04   -0.15945E-04  5617   0.354E-02    0.432E-02
RMM:  13    -0.544896578905E+03    0.59778E-05   -0.53607E-05  5374   0.213E-02    0.112E-02
RMM:  14    -0.544896603325E+03   -0.24420E-04   -0.45429E-05  5773   0.117E-02    0.135E-02
RMM:  15    -0.544896608238E+03   -0.49136E-05   -0.12165E-05  4106   0.945E-03    0.602E-03
RMM:  16    -0.544896614823E+03   -0.65846E-05   -0.53468E-06  3922   0.532E-03    0.394E-03
RMM:  17    -0.544896623192E+03   -0.83692E-05   -0.18530E-06  3290   0.437E-03    0.387E-03
RMM:  18    -0.544896632152E+03   -0.89597E-05   -0.14493E-06  3145   0.397E-03    0.216E-03
RMM:  19    -0.544896641913E+03   -0.97612E-05   -0.13855E-06  3181   0.267E-03    0.168E-03
RMM:  20    -0.544896648348E+03   -0.64349E-05   -0.81783E-07  3060   0.247E-03    0.893E-04
RMM:  21    -0.544896654714E+03   -0.63661E-05   -0.77132E-07  2508   0.156E-03    0.800E-04
RMM:  22    -0.544896662303E+03   -0.75895E-05   -0.10692E-06  3072   0.192E-03    0.851E-04
RMM:  23    -0.544896667944E+03   -0.56402E-05   -0.96116E-07  2965   0.174E-03    0.676E-04
RMM:  24    -0.544896671053E+03   -0.31097E-05   -0.62867E-07  2227   0.160E-03    0.418E-04
RMM:  25    -0.544896672762E+03   -0.17083E-05   -0.40721E-07  2081   0.136E-03    0.413E-04
RMM:  26    -0.544896673578E+03   -0.81652E-06   -0.25808E-07  1945   0.124E-03
   4 F= -.54489667E+03 E0= -.54488343E+03  d E =-.165018E+00
 trial-energy change:   -0.165018  1 .order   -0.167365   -0.372902    0.038172
 step:   0.9075(harm=  0.9104)  dis= 0.02930  next Energy=  -544.898505 (dE=-0.167E+00)
 bond charge predicted
       N       E                     dE             d eps       ncg     rms          rms(c)
DAV:   1    -0.544898280851E+03   -0.16081E-02   -0.21947E-01  5216   0.108E+00    0.207E-01
RMM:   2    -0.544899967475E+03   -0.16866E-02   -0.80774E-03  6297   0.279E-01    0.325E-01
RMM:   3    -0.544899105916E+03    0.86156E-03   -0.22035E-03  5859   0.164E-01    0.201E-01
RMM:   4    -0.544899274257E+03   -0.16834E-03   -0.22770E-03  6084   0.129E-01    0.245E-01
RMM:   5    -0.544898591334E+03    0.68292E-03   -0.93700E-04  5227   0.112E-01    0.897E-02
RMM:   6    -0.544898544099E+03    0.47235E-04   -0.45800E-04  5811   0.646E-02    0.635E-02
RMM:   7    -0.544898503773E+03    0.40326E-04   -0.15866E-04  5662   0.400E-02    0.266E-02
RMM:   8    -0.544898500532E+03    0.32413E-05   -0.61129E-05  5722   0.209E-02    0.197E-02
RMM:   9    -0.544898496999E+03    0.35326E-05   -0.21901E-05  5082   0.142E-02    0.118E-02
RMM:  10    -0.544898496650E+03    0.34924E-06   -0.12449E-05  4535   0.854E-03    0.936E-03
RMM:  11    -0.544898495961E+03    0.68881E-06   -0.42108E-06  3604   0.712E-03
   5 F= -.54489850E+03 E0= -.54488519E+03  d E =-.166840E+00
 curvature:  -0.55 expect dE=-0.225E-01 dE for cont linesearch -0.206E-07
 trial: gam= 0.08431 g(F)=  0.410E-01 g(S)=  0.000E+00 ort = 0.130E-03 (trialstep = 0.984E+00)
 search vector abs. value=  0.443E-01
 bond charge predicted
       N       E                     dE             d eps       ncg     rms          rms(c)
DAV:   1    -0.544918245544E+03   -0.19749E-01   -0.28617E+00  5040   0.378E+00    0.716E-01
RMM:   2    -0.544983467498E+03   -0.65222E-01   -0.21376E-01  5787   0.143E+00    0.246E+00
RMM:   3    -0.544920955817E+03    0.62512E-01   -0.48384E-02  5469   0.829E-01    0.479E-01
RMM:   4    -0.544934222596E+03   -0.13267E-01   -0.37760E-02  6753   0.400E-01    0.963E-01
RMM:   5    -0.544920273613E+03    0.13949E-01   -0.11272E-02  6068   0.322E-01    0.257E-01
RMM:   6    -0.544920887522E+03   -0.61391E-03   -0.72744E-03  5275   0.293E-01    0.308E-01
RMM:   7    -0.544919647501E+03    0.12400E-02   -0.21486E-03  5178   0.174E-01    0.820E-02
RMM:   8    -0.544919711700E+03   -0.64199E-04   -0.14870E-03  6747   0.664E-02    0.831E-02
RMM:   9    -0.544919645274E+03    0.66426E-04   -0.31419E-04  5774   0.528E-02    0.396E-02
RMM:  10    -0.544919646170E+03   -0.89587E-06   -0.19099E-04  6288   0.284E-02    0.293E-02
RMM:  11    -0.544919639823E+03    0.63472E-05   -0.51756E-05  5355   0.208E-02    0.184E-02
RMM:  12    -0.544919641252E+03   -0.14294E-05   -0.32139E-05  5619   0.120E-02    0.130E-02
RMM:  13    -0.544919641119E+03    0.13292E-06   -0.14821E-05  4421   0.117E-02    0.116E-02
RMM:  14    -0.544919640235E+03    0.88395E-06   -0.55730E-06  3816   0.806E-03
   6 F= -.54491964E+03 E0= -.54490635E+03  d E =-.211443E-01
 trial-energy change:   -0.021144  1 .order   -0.021151   -0.040419   -0.001883
 step:   1.0325(harm=  1.0325)  dis= 0.01198  next Energy=  -544.919693 (dE=-0.212E-01)
 bond charge predicted
       N       E                     dE             d eps       ncg     rms          rms(c)
DAV:   1    -0.544919688513E+03   -0.47393E-04   -0.68779E-03  5520   0.185E-01    0.355E-02
RMM:   2    -0.544919844558E+03   -0.15605E-03   -0.50858E-04  5819   0.704E-02    0.120E-01
RMM:   3    -0.544919694951E+03    0.14961E-03   -0.11978E-04  5436   0.410E-02    0.224E-02
RMM:   4    -0.544919731279E+03   -0.36328E-04   -0.89650E-05  6441   0.187E-02    0.484E-02
RMM:   5    -0.544919694612E+03    0.36667E-04   -0.29700E-05  5224   0.168E-02    0.136E-02
RMM:   6    -0.544919696186E+03   -0.15738E-05   -0.17956E-05  4779   0.139E-02    0.140E-02
RMM:   7    -0.544919693546E+03    0.26396E-05   -0.54379E-06  3728   0.883E-03    0.479E-03
RMM:   8    -0.544919693654E+03   -0.10734E-06   -0.30460E-06  3563   0.476E-03
   7 F= -.54491969E+03 E0= -.54490640E+03  d E =-.211977E-01
 curvature:  -0.56 expect dE=-0.311E-02 dE for cont linesearch -0.203E-06
 trial: gam= 0.13339 g(F)=  0.558E-02 g(S)=  0.000E+00 ort = 0.127E-03 (trialstep = 0.994E+00)
 search vector abs. value=  0.640E-02
 bond charge predicted
       N       E                     dE             d eps       ncg     rms          rms(c)
DAV:   1    -0.544922764397E+03   -0.30709E-02   -0.45801E-01  5056   0.149E+00    0.216E-01
RMM:   2    -0.544924395277E+03   -0.16309E-02   -0.11480E-02  5319   0.416E-01    0.305E-01
RMM:   3    -0.544924041063E+03    0.35421E-03   -0.34339E-03  6414   0.180E-01    0.247E-01
RMM:   4    -0.544923957206E+03    0.83857E-04   -0.22216E-03  5915   0.138E-01    0.246E-01
RMM:   5    -0.544923416893E+03    0.54031E-03   -0.14818E-03  5483   0.131E-01    0.140E-01
RMM:   6    -0.544923331911E+03    0.84982E-04   -0.80502E-04  5431   0.966E-02    0.111E-01
RMM:   7    -0.544923212726E+03    0.11918E-03   -0.33208E-04  5493   0.600E-02    0.440E-02
RMM:   8    -0.544923206180E+03    0.65468E-05   -0.17487E-04  5815   0.342E-02    0.353E-02
RMM:   9    -0.544923191248E+03    0.14932E-04   -0.54774E-05  5375   0.223E-02    0.112E-02
RMM:  10    -0.544923192665E+03   -0.14169E-05   -0.32065E-05  5231   0.859E-03    0.841E-03
RMM:  11    -0.544923192549E+03    0.11600E-06   -0.74730E-06  3942   0.790E-03
   8 F= -.54492319E+03 E0= -.54490998E+03  d E =-.349889E-02
 trial-energy change:   -0.003499  1 .order   -0.003497   -0.005566   -0.001428
 step:   1.3372(harm=  1.3372)  dis= 0.00711  next Energy=  -544.923437 (dE=-0.374E-02)
 bond charge predicted
       N       E                     dE             d eps       ncg     rms          rms(c)
DAV:   1    -0.544923396636E+03   -0.20397E-03   -0.54647E-02  5088   0.513E-01    0.750E-02
RMM:   2    -0.544923575654E+03   -0.17902E-03   -0.13909E-03  5317   0.145E-01    0.101E-01
RMM:   3    -0.544923549843E+03    0.25810E-04   -0.41684E-04  6349   0.639E-02    0.860E-02
RMM:   4    -0.544923545683E+03    0.41606E-05   -0.27253E-04  6074   0.469E-02    0.873E-02
RMM:   5    -0.544923479797E+03    0.65885E-04   -0.18516E-04  5502   0.450E-02    0.513E-02
RMM:   6    -0.544923463623E+03    0.16174E-04   -0.10007E-04  5459   0.334E-02    0.367E-02
RMM:   7    -0.544923451128E+03    0.12495E-04   -0.43470E-05  5339   0.204E-02    0.160E-02
RMM:   8    -0.544923450282E+03    0.84579E-06   -0.22150E-05  4775   0.127E-02    0.129E-02
RMM:   9    -0.544923448310E+03    0.19723E-05   -0.67670E-06  3888   0.872E-03    0.421E-03
RMM:  10    -0.544923448472E+03   -0.16177E-06   -0.32814E-06  3644   0.411E-03
   9 F= -.54492345E+03 E0= -.54491026E+03  d E =-.375482E-02
 curvature:  -0.76 expect dE=-0.149E-02 dE for cont linesearch -0.976E-07
 trial: gam= 0.34896 g(F)=  0.195E-02 g(S)=  0.000E+00 ort = 0.286E-04 (trialstep = 0.106E+01)
 search vector abs. value=  0.274E-02
 bond charge predicted
       N       E                     dE             d eps       ncg     rms          rms(c)
DAV:   1    -0.544924658278E+03   -0.12100E-02   -0.18504E-01  5056   0.968E-01    0.132E-01
RMM:   2    -0.544924988725E+03   -0.33045E-03   -0.38972E-03  5198   0.250E-01    0.145E-01
RMM:   3    -0.544925124680E+03   -0.13595E-03   -0.15195E-03  6184   0.127E-01    0.160E-01
RMM:   4    -0.544925111712E+03    0.12968E-04   -0.74201E-04  6355   0.744E-02    0.134E-01
RMM:   5    -0.544924903990E+03    0.20772E-03   -0.40046E-04  5759   0.604E-02    0.768E-02
RMM:   6    -0.544924882400E+03    0.21589E-04   -0.30448E-04  5984   0.475E-02    0.709E-02
RMM:   7    -0.544924834003E+03    0.48397E-04   -0.11857E-04  5332   0.361E-02    0.252E-02
RMM:   8    -0.544924829214E+03    0.47890E-05   -0.55617E-05  6064   0.136E-02    0.122E-02
RMM:   9    -0.544924827437E+03    0.17769E-05   -0.15440E-05  4335   0.964E-03    0.734E-03
RMM:  10    -0.544924827073E+03    0.36464E-06   -0.46935E-06  3729   0.556E-03
  10 F= -.54492483E+03 E0= -.54491167E+03  d E =-.137860E-02
 trial-energy change:   -0.001379  1 .order   -0.001376   -0.002078   -0.000675
 step:   1.5742(harm=  1.5742)  dis= 0.00505  next Energy=  -544.924987 (dE=-0.154E-02)
 bond charge predicted
       N       E                     dE             d eps       ncg     rms          rms(c)
DAV:   1    -0.544924954227E+03   -0.12679E-03   -0.42917E-02  5104   0.466E-01    0.635E-02
RMM:   2    -0.544925034766E+03   -0.80539E-04   -0.92339E-04  5186   0.122E-01    0.718E-02
RMM:   3    -0.544925061284E+03   -0.26518E-04   -0.35379E-04  6190   0.610E-02    0.755E-02
RMM:   4    -0.544925061552E+03   -0.26838E-06   -0.17721E-04  6399   0.356E-02    0.650E-02
RMM:   5    -0.544925014217E+03    0.47335E-04   -0.98250E-05  5676   0.295E-02    0.374E-02
RMM:   6    -0.544925009871E+03    0.43455E-05   -0.75349E-05  5788   0.235E-02    0.350E-02
RMM:   7    -0.544924997695E+03    0.12176E-04   -0.27976E-05  4871   0.178E-02    0.122E-02
RMM:   8    -0.544924996742E+03    0.95297E-06   -0.13674E-05  4557   0.766E-03    0.680E-03
RMM:   9    -0.544924996184E+03    0.55845E-06   -0.35647E-06  3582   0.614E-03
  11 F= -.54492500E+03 E0= -.54491186E+03  d E =-.154771E-02
 curvature:  -1.11 expect dE=-0.664E-03 dE for cont linesearch -0.457E-07
 trial: gam= 0.31102 g(F)=  0.601E-03 g(S)=  0.000E+00 ort = 0.107E-04 (trialstep = 0.116E+01)
 search vector abs. value=  0.873E-03
 bond charge predicted
       N       E                     dE             d eps       ncg     rms          rms(c)
DAV:   1    -0.544925436870E+03   -0.44013E-03   -0.62909E-02  5072   0.574E-01    0.835E-02
RMM:   2    -0.544925717158E+03   -0.28029E-03   -0.17303E-03  5579   0.148E-01    0.138E-01
RMM:   3    -0.544925565886E+03    0.15127E-03   -0.49187E-04  6216   0.697E-02    0.829E-02
RMM:   4    -0.544925623905E+03   -0.58020E-04   -0.41282E-04  6340   0.528E-02    0.108E-01
RMM:   5    -0.544925510552E+03    0.11335E-03   -0.21516E-04  5526   0.510E-02    0.491E-02
RMM:   6    -0.544925482724E+03    0.27828E-04   -0.95922E-05  6260   0.253E-02    0.269E-02
RMM:   7    -0.544925478326E+03    0.43977E-05   -0.41376E-05  5092   0.210E-02    0.189E-02
RMM:   8    -0.544925474787E+03    0.35389E-05   -0.12662E-05  4330   0.107E-02    0.829E-03
RMM:   9    -0.544925474552E+03    0.23547E-06   -0.68632E-06  3822   0.759E-03
  12 F= -.54492547E+03 E0= -.54491240E+03  d E =-.478368E-03
 trial-energy change:   -0.000478  1 .order   -0.000475   -0.000704   -0.000246
 step:   1.7905(harm=  1.7905)  dis= 0.00350  next Energy=  -544.925537 (dE=-0.541E-03)
 reached required accuracy - stopping structural energy minimisation
 augmentation electrons   27.520264921392137     
 soft         electrons   236.55510489497715     
 augmentation electrons   27.520264921392137     
 soft         electrons   236.55510489497715     
 augmentation electrons   27.520264921392137     
 soft         electrons   236.55510489497715     
 augmentation electrons   27.520264921392137     
 soft         electrons   236.55510489497715     
 augmentation electrons   27.520264921392137     
 soft         electrons   236.55510489497715     
 augmentation electrons   27.520264921392137     
 soft         electrons   236.55510489497715     
 augmentation electrons   27.520264921392137     
 soft         electrons   236.55510489497715     
 augmentation electrons   27.520264921392137     
 soft         electrons   236.55510489497715     
 augmentation electrons   27.520264921392137     
 soft         electrons   236.55510489497715     
 augmentation electrons   27.520264921392137     
 soft         electrons   236.55510489497715     
 augmentation electrons   27.520264921392137     
 soft         electrons   236.55510489497715     
 augmentation electrons   27.520264921392137     
 soft         electrons   236.55510489497715     
 augmentation electrons   27.520264921392137     
 soft         electrons   236.55510489497715     
 augmentation electrons   27.520264921392137     
 soft         electrons   236.55510489497715     
 augmentation electrons   27.520264921392137     
 soft         electrons   236.55510489497715     
 augmentation electrons   27.520264921392137     
 soft         electrons   236.55510489497715     
 augmentation electrons   27.520264921392137     
 soft         electrons   236.55510489497715     
 augmentation electrons   27.520264921392137     
 soft         electrons   236.55510489497715     
 augmentation electrons   27.520264921392137     
 soft         electrons   236.55510489497715     
 augmentation electrons   27.520264921392137     
 soft         electrons   236.55510489497715     
 augmentation electrons   27.520264921392137     
 soft         electrons   236.55510489497715     
 augmentation electrons   27.520264921392137     
 soft         electrons   236.55510489497715     
 augmentation electrons   27.520264921392137     
 soft         electrons   236.55510489497715     
 augmentation electrons   27.520264921392137     
 soft         electrons   236.55510489497715     
 augmentation electrons   27.520264921392137     
 soft         electrons   236.55510489497715     
 augmentation electrons   27.520264921392137     
 soft         electrons   236.55510489497715     
 augmentation electrons   27.520264921392137     
 soft         electrons   236.55510489497715     
 augmentation electrons   27.520264921392137     
 soft         electrons   236.55510489497715     
 augmentation electrons   27.520264921392137     
 soft         electrons   236.55510489497715     
 augmentation electrons   27.520264921392137     
 soft         electrons   236.55510489497715     
 augmentation electrons   27.520264921392137     
 soft         electrons   236.55510489497715     
 augmentation electrons   27.520264921392137     
 soft         electrons   236.55510489497715     
 augmentation electrons   27.520264921392137     
 soft         electrons   236.55510489497715     
 augmentation electrons   27.520264921392137     
 soft         electrons   236.55510489497715     
 augmentation electrons   27.520264921392137     
 soft         electrons   236.55510489497715     
 augmentation electrons   27.520264921392137     
 soft         electrons   236.55510489497715     
 augmentation electrons   27.520264921392137     
 soft         electrons   236.55510489497715     
 augmentation electrons   27.520264921392137     
 soft         electrons   236.55510489497715     
 augmentation electrons   27.520264921392137     
 soft         electrons   236.55510489497715     
 augmentation electrons   27.520264921392137     
 soft         electrons   236.55510489497715     
 augmentation electrons   27.520264921392137     
 soft         electrons   236.55510489497715     
 augmentation electrons   27.520264921392137     
 soft         electrons   236.55510489497715     
 augmentation electrons   27.520264921392137     
 soft         electrons   236.55510489497715     
 augmentation electrons   27.520264921392137     
 soft         electrons   236.55510489497715     
 augmentation electrons   27.520264921392137     
 soft         electrons   236.55510489497715     
 augmentation electrons   27.520264921392137     
 soft         electrons   236.55510489497715     
 augmentation electrons   27.520264921392137     
 soft         electrons   236.55510489497715     
 augmentation electrons   27.520264921392137     
 soft         electrons   236.55510489497715     
 augmentation electrons   27.520264921392137     
 soft         electrons   236.55510489497715     
 augmentation electrons   27.520264921392137     
 soft         electrons   236.55510489497715     
 augmentation electrons   27.520264921392137     
 soft         electrons   236.55510489497715     
 augmentation electrons   27.520264921392137     
 soft         electrons   236.55510489497715     
 augmentation electrons   27.520264921392137     
 soft         electrons   236.55510489497715     
 augmentation electrons   27.520264921392137     
 soft         electrons   236.55510489497715     
 augmentation electrons   27.520264921392137     
 soft         electrons   236.55510489497715     
 augmentation electrons   27.520264921392137     
 soft         electrons   236.55510489497715     
 augmentation electrons   27.520264921392137     
 soft         electrons   236.55510489497715     
 augmentation electrons   27.520264921392137     
 soft         electrons   236.55510489497715     
 augmentation electrons   27.520264921392137     
 soft         electrons   236.55510489497715     
 augmentation electrons   27.520264921392137     
 soft         electrons   236.55510489497715     
 augmentation electrons   27.520264921392137     
 soft         electrons   236.55510489497715     
 augmentation electrons   27.520264921392137     
 soft         electrons   236.55510489497715     
 augmentation electrons   27.520264921392137     
 soft         electrons   236.55510489497715     
 augmentation electrons   27.520264921392137     
 soft         electrons   236.55510489497715     
 augmentation electrons   27.520264921392137     
 soft         electrons   236.55510489497715     
 augmentation electrons   27.520264921392137     
 soft         electrons   236.55510489497715     
 augmentation electrons   27.520264921392137     
 soft         electrons   236.55510489497715     
 augmentation electrons   27.520264921392137     
 soft         electrons   236.55510489497715     
 augmentation electrons   27.520264921392137     
 soft         electrons   236.55510489497715     
 augmentation electrons   27.520264921392137     
 soft         electrons   236.55510489497715     
 augmentation electrons   27.520264921392137     
 soft         electrons   236.55510489497715     
 augmentation electrons   27.520264921392137     
 soft         electrons   236.55510489497715     
 total        electrons   264.07536981636929     
 total        electrons   264.07536981636929     
 total        electrons   264.07536981636929     
 total        electrons   264.07536981636929     
 total        electrons   264.07536981636929     
 total        electrons   264.07536981636929     
 total        electrons   264.07536981636929     
 total        electrons   264.07536981636929     
 total        electrons   264.07536981636929     
 total        electrons   264.07536981636929     
 total        electrons   264.07536981636929     
 total        electrons   264.07536981636929     
 total        electrons   264.07536981636929     
 total        electrons   264.07536981636929     
 total        electrons   264.07536981636929     
 total        electrons   264.07536981636929     
 total        electrons   264.07536981636929     
 total        electrons   264.07536981636929     
 total        electrons   264.07536981636929     
 total        electrons   264.07536981636929     
 total        electrons   264.07536981636929     
 total        electrons   264.07536981636929     
 total        electrons   264.07536981636929     
 total        electrons   264.07536981636929     
 total        electrons   264.07536981636929     
 total        electrons   264.07536981636929     
 total        electrons   264.07536981636929     
 total        electrons   264.07536981636929     
 total        electrons   264.07536981636929     
 total        electrons   264.07536981636929     
 total        electrons   264.07536981636929     
 total        electrons   264.07536981636929     
 total        electrons   264.07536981636929     
 total        electrons   264.07536981636929     
 total        electrons   264.07536981636929     
 total        electrons   264.07536981636929     
 total        electrons   264.07536981636929     
 total        electrons   264.07536981636929     
 total        electrons   264.07536981636929     
 total        electrons   264.07536981636929     
 total        electrons   264.07536981636929     
 total        electrons   264.07536981636929     
 total        electrons   264.07536981636929     
 total        electrons   264.07536981636929     
 total        electrons   264.07536981636929     
 total        electrons   264.07536981636929     
 total        electrons   264.07536981636929     
 total        electrons   264.07536981636929     
 total        electrons   264.07536981636929     
 total        electrons   264.07536981636929     
 total        electrons   264.07536981636929     
 total        electrons   264.07536981636929     
 total        electrons   264.07536981636929     
 total        electrons   264.07536981636929     
 total        electrons   264.07536981636929     
 total        electrons   264.07536981636929     
 total        electrons   264.07536981636929     
 total        electrons   264.07536981636929     
 total        electrons   264.07536981636929     
 total        electrons   264.07536981636929     
 total        electrons   264.07536981636929     
 total        electrons   264.07536981636929     
 total        electrons   264.07536981636929     
 total        electrons   264.07536981636929     
 total        electrons   264.07536981636929     
 total        electrons   264.07536981636929     
 total        electrons   264.07536981636929     
 total        electrons   264.07536981636929     
 total        electrons   264.07536981636929     
 total        electrons   264.07536981636929     
 total        electrons   264.07536981636929     
 total        electrons   264.07536981636929     
Note: The following floating-point exceptions are signalling: IEEE_OVERFLOW_FLAG
Note: The following floating-point exceptions are signalling: IEEE_OVERFLOW_FLAG
Note: The following floating-point exceptions are signalling: IEEE_OVERFLOW_FLAG
Note: The following floating-point exceptions are signalling: IEEE_OVERFLOW_FLAG
Note: The following floating-point exceptions are signalling: IEEE_OVERFLOW_FLAG
Note: The following floating-point exceptions are signalling: IEEE_OVERFLOW_FLAG
Note: The following floating-point exceptions are signalling: IEEE_OVERFLOW_FLAG
Note: The following floating-point exceptions are signalling: IEEE_OVERFLOW_FLAG
Note: The following floating-point exceptions are signalling: IEEE_OVERFLOW_FLAG
Note: The following floating-point exceptions are signalling: IEEE_OVERFLOW_FLAG
Note: The following floating-point exceptions are signalling: IEEE_OVERFLOW_FLAG
Note: The following floating-point exceptions are signalling: IEEE_OVERFLOW_FLAG
Note: The following floating-point exceptions are signalling: IEEE_OVERFLOW_FLAG
Note: The following floating-point exceptions are signalling: IEEE_OVERFLOW_FLAG
Note: The following floating-point exceptions are signalling: IEEE_OVERFLOW_FLAG
Note: The following floating-point exceptions are signalling: IEEE_OVERFLOW_FLAG
Note: The following floating-point exceptions are signalling: IEEE_OVERFLOW_FLAG
Note: The following floating-point exceptions are signalling: IEEE_OVERFLOW_FLAG
Note: The following floating-point exceptions are signalling: IEEE_OVERFLOW_FLAG
Note: The following floating-point exceptions are signalling: IEEE_OVERFLOW_FLAG
Note: The following floating-point exceptions are signalling: IEEE_OVERFLOW_FLAG
Note: The following floating-point exceptions are signalling: IEEE_OVERFLOW_FLAG
Note: The following floating-point exceptions are signalling: IEEE_OVERFLOW_FLAG
Note: The following floating-point exceptions are signalling: IEEE_OVERFLOW_FLAG
Note: The following floating-point exceptions are signalling: IEEE_OVERFLOW_FLAG
Note: The following floating-point exceptions are signalling: IEEE_INVALID_FLAG IEEE_OVERFLOW_FLAG
Note: The following floating-point exceptions are signalling: IEEE_OVERFLOW_FLAG
Note: The following floating-point exceptions are signalling: IEEE_OVERFLOW_FLAG
Note: The following floating-point exceptions are signalling: IEEE_OVERFLOW_FLAG
Note: The following floating-point exceptions are signalling: IEEE_OVERFLOW_FLAG
Note: The following floating-point exceptions are signalling: IEEE_INVALID_FLAG IEEE_OVERFLOW_FLAG
Note: The following floating-point exceptions are signalling: IEEE_OVERFLOW_FLAG
Note: The following floating-point exceptions are signalling: IEEE_OVERFLOW_FLAG
Note: The following floating-point exceptions are signalling: IEEE_OVERFLOW_FLAG
Note: The following floating-point exceptions are signalling: IEEE_OVERFLOW_FLAG
Note: The following floating-point exceptions are signalling: IEEE_OVERFLOW_FLAG
Note: The following floating-point exceptions are signalling: IEEE_OVERFLOW_FLAG
Note: The following floating-point exceptions are signalling: IEEE_OVERFLOW_FLAG
Note: The following floating-point exceptions are signalling: IEEE_OVERFLOW_FLAG
Note: The following floating-point exceptions are signalling: IEEE_OVERFLOW_FLAG
Note: The following floating-point exceptions are signalling: IEEE_OVERFLOW_FLAG
Note: The following floating-point exceptions are signalling: IEEE_OVERFLOW_FLAG
Note: The following floating-point exceptions are signalling: IEEE_OVERFLOW_FLAG
Note: The following floating-point exceptions are signalling: IEEE_OVERFLOW_FLAG
Note: The following floating-point exceptions are signalling: IEEE_OVERFLOW_FLAG
Note: The following floating-point exceptions are signalling: IEEE_OVERFLOW_FLAG
Note: The following floating-point exceptions are signalling: IEEE_OVERFLOW_FLAG
Note: The following floating-point exceptions are signalling: IEEE_OVERFLOW_FLAG
Note: The following floating-point exceptions are signalling: IEEE_OVERFLOW_FLAG
Note: The following floating-point exceptions are signalling: IEEE_OVERFLOW_FLAG
Note: The following floating-point exceptions are signalling: IEEE_OVERFLOW_FLAG
Note: The following floating-point exceptions are signalling: IEEE_OVERFLOW_FLAG
Note: The following floating-point exceptions are signalling: IEEE_OVERFLOW_FLAG
Note: The following floating-point exceptions are signalling: IEEE_OVERFLOW_FLAG
Note: The following floating-point exceptions are signalling: IEEE_OVERFLOW_FLAG
Note: The following floating-point exceptions are signalling: IEEE_OVERFLOW_FLAG
Note: The following floating-point exceptions are signalling: IEEE_OVERFLOW_FLAG
Note: The following floating-point exceptions are signalling: IEEE_OVERFLOW_FLAG
Note: The following floating-point exceptions are signalling: IEEE_OVERFLOW_FLAG
Note: The following floating-point exceptions are signalling: IEEE_OVERFLOW_FLAG
Note: The following floating-point exceptions are signalling: IEEE_OVERFLOW_FLAG
Note: The following floating-point exceptions are signalling: IEEE_OVERFLOW_FLAG
Note: The following floating-point exceptions are signalling: IEEE_OVERFLOW_FLAG
Note: The following floating-point exceptions are signalling: IEEE_OVERFLOW_FLAG
Note: The following floating-point exceptions are signalling: IEEE_OVERFLOW_FLAG
Note: The following floating-point exceptions are signalling: IEEE_OVERFLOW_FLAG
Note: The following floating-point exceptions are signalling: IEEE_OVERFLOW_FLAG
Note: The following floating-point exceptions are signalling: IEEE_OVERFLOW_FLAG
Note: The following floating-point exceptions are signalling: IEEE_OVERFLOW_FLAG
Note: The following floating-point exceptions are signalling: IEEE_OVERFLOW_FLAG
Note: The following floating-point exceptions are signalling: IEEE_OVERFLOW_FLAG
Note: The following floating-point exceptions are signalling: IEEE_OVERFLOW_FLAG
