    3    3   60    1
  0.8144830E+01  0.3039000E-09  0.3039000E-09  0.3055000E-09  0.5000000E-15
   1.0000000000000000E-004
  CAR 
 Name                                    
     12    216     10

  0.3742002E-15  0.3742002E-15  0.3742002E-15  0.2962963E-03
    1       -5.915237   1.000000
    2        4.102547   1.000000
    3        4.102549   1.000000
    4        5.125245   1.000000
    5        6.295191   1.000000
    6        8.263295   1.000000
    7        8.263296   1.000000
    8       11.674528  -0.000000
    9       11.674530  -0.000000
   10       12.196093   0.000000

  0.6666667E-01  0.3766815E-15  0.3742002E-15  0.1777778E-02
    1       -5.830896   1.000000
    2        3.873628   1.000000
    3        4.138440   1.000000
    4        5.163928   1.000000
    5        5.992078   1.000000
    6        8.233688   1.000000
    7        8.652875   1.000000
    8       11.037643  -0.000000
    9       11.115627  -0.000000
   10       12.487344   0.000000

  0.1333333E+00  0.3754153E-15  0.3742002E-15  0.1777778E-02
    1       -5.580782   1.000000
    2        3.273105   1.000000
    3        4.235139   1.000000
    4        5.249153   1.000000
    5        5.427001   1.000000
    6        8.151248   1.000000
    7        9.457103  -0.000075
    8       10.174791  -0.000000
    9       10.430247  -0.000000
   10       13.168746   0.000000

  0.2000000E+00  0.3870416E-15  0.3742002E-15  0.1777778E-02
    1       -5.173397   1.000000
    2        2.459051   1.000000
    3        4.362394   1.000000
    4        4.876723   1.000000
    5        5.281049   1.000000
    6        8.033073   1.000000
    7        9.578603  -0.000000
    8        9.928808  -0.000000
    9       10.324378  -0.000000
   10       13.731504   0.000000

  0.2666667E+00  0.4120044E-15  0.3742002E-15  0.1777778E-02
    1       -4.622027   1.000000
    2        1.543071   1.000000
    3        4.414827   1.000000
    4        4.481116   1.000000
    5        5.144507   1.000000
    6        7.901869   1.000000
    7        9.449984  -0.000111
    8        9.641384  -0.000000
    9       11.015139  -0.000000
   10       14.010210   0.000000

  0.3333333E+00  0.4025434E-15  0.3742002E-15  0.1777778E-02
    1       -3.943872   1.000000
    2        0.582096   1.000000
    3        4.062665   1.000000
    4        4.562234   1.000000
    5        4.860102   1.000000
    6        7.780553   1.000000
    7        9.545393  -0.000000
    8        9.782639  -0.000000
    9       11.318903  -0.000000
   10       14.175586   0.000000

  0.4000000E+00  0.3732510E-15  0.3742002E-15  0.1777778E-02
    1       -3.159066   1.000000
    2       -0.392933   1.000000
    3        3.826853   1.000000
    4        4.573433   1.000000
    5        4.601628   1.000000
    6        7.688384   1.000000
    7        9.569556  -0.000000
    8       10.357281  -0.000000
    9       11.311390  -0.000000
   10       14.354337   0.000000

  0.4666667E+00  0.3915456E-15  0.3742002E-15  0.1777778E-02
    1       -2.290980   1.000000
    2       -1.356554   1.000000
    3        3.708918   1.000000
    4        4.403881   1.000000
    5        4.614163   1.000000
    6        7.638859   1.000000
    7        9.617048  -0.000000
    8       10.830033  -0.000000
    9       11.241651  -0.000000
   10       14.693885   0.000000

  0.6666667E-01  0.6666667E-01  0.3742002E-15  0.1777778E-02
    1       -5.663650   1.000000
    2        3.474539   1.000000
    3        4.183228   1.000000
    4        5.233127   1.000000
    5        5.584886   1.000000
    6        8.163125   1.000000
    7        9.239062  -0.003638
    8       10.468107  -0.000000
    9       10.514850  -0.000000
   10       13.004311   0.000000

  0.1333333E+00  0.6666667E-01  0.3742002E-15  0.3555556E-02
    1       -5.334788   1.000000
    2        2.803789   1.000000
    3        4.216803   1.000000
    4        5.073652   1.000000
    5        5.341096   1.000000
    6        8.023835   1.000000
    7        9.765659  -0.000000
    8       10.046009  -0.000000
    9       10.081358  -0.000000
   10       13.738130   0.000000

  0.2000000E+00  0.6666667E-01  0.3742002E-15  0.3555556E-02
    1       -4.855071   1.000000
    2        1.977973   1.000000
    3        4.179849   1.000000
    4        4.606540   1.000000
    5        5.426193   1.000000
    6        7.844794   1.000000
    7        9.290020  -0.032857
    8        9.841244  -0.000000
    9       10.920402  -0.000000
   10       14.141516   0.000000

  0.2666667E+00  0.6666667E-01  0.3742002E-15  0.3555556E-02
    1       -4.239693   1.000000
    2        1.070941   1.000000
    3        4.037089   1.000000
    4        4.230505   1.000000
    5        5.444654   1.000000
    6        7.657689   1.000000
    7        9.145750   0.562546
    8        9.932536  -0.000000
    9       11.498542  -0.000000
   10       14.318460   0.000000

  0.3333333E+00  0.6666667E-01  0.3742002E-15  0.3555556E-02
    1       -3.507339   1.000000
    2        0.123166   1.000000
    3        3.834453   1.000000
    4        3.959968   1.000000
    5        5.409444   1.000000
    6        7.494484   1.000000
    7        9.251025  -0.022764
    8       10.257802  -0.000000
    9       11.673077  -0.000000
   10       14.462780   0.000000

  0.4000000E+00  0.6666667E-01  0.3742002E-15  0.3555556E-02
    1       -2.679679   1.000000
    2       -0.836311   1.000000
    3        3.665634   1.000000
    4        3.798057   1.000000
    5        5.364546   1.000000
    6        7.383326   1.000000
    7        9.425783  -0.000397
    8       10.638177  -0.000000
    9       11.638532  -0.000000
   10       14.709425   0.000000

  0.4666667E+00  0.6666667E-01  0.3742002E-15  0.1777778E-02
    1       -1.808576   1.000000
    2       -1.751869   1.000000
    3        3.601456   1.000000
    4        3.744260   1.000000
    5        5.345411   1.000000
    6        7.343895   1.000000
    7        9.506030  -0.000004
    8       10.813751  -0.000000
    9       11.606062  -0.000000
   10       15.204819   0.000000

  0.1333333E+00  0.1333333E+00  0.3742002E-15  0.1777778E-02
    1       -4.933349   1.000000
    2        2.183446   1.000000
    3        3.979956   1.000000
    4        4.692728   1.000000
    5        5.561594   1.000000
    6        7.767051   1.000000
    7        9.239673  -0.004879
    8        9.915435  -0.000000
    9       10.941805  -0.000000
   10       14.638372   0.000000

  0.2000000E+00  0.1333333E+00  0.3742002E-15  0.3555556E-02
    1       -4.388872   1.000000
    2        1.453218   1.000000
    3        3.587279   1.000000
    4        4.367729   1.000000
    5        5.846285   1.000000
    6        7.446358   1.000000
    7        8.818530   1.000012
    8       10.075913  -0.000000
    9       11.808808  -0.000000
   10       14.565795   0.000000

  0.2666667E+00  0.1333333E+00  0.3742002E-15  0.3555556E-02
    1       -3.718018   1.000000
    2        0.631542   1.000000
    3        3.179405   1.000000
    4        4.127371   1.000000
    5        6.064997   1.000000
    6        7.128708   1.000000
    7        8.697419   1.000000
    8       10.347798  -0.000000
    9       12.368894   0.000000
   10       14.696659   0.000000

  0.3333333E+00  0.1333333E+00  0.3742002E-15  0.3555556E-02
    1       -2.941456   1.000000
    2       -0.257780   1.000000
    3        2.864546   1.000000
    4        3.974785   1.000000
    5        6.145305   1.000000
    6        6.874915   1.000000
    7        8.889555   1.000617
    8       10.537980  -0.000000
    9       12.503112   0.000000
   10       15.154874   0.000000

  0.4000000E+00  0.1333333E+00  0.3742002E-15  0.3555556E-02
    1       -2.084603   1.000000
    2       -1.176698   1.000000
    3        2.697504   1.000000
    4        3.902303   1.000000
    5        6.147555   1.000000
    6        6.733931   1.000000
    7        9.161125   0.432853
    8       10.561364  -0.000000
    9       12.486747   0.000000
   10       15.544281   0.000000

  0.2000000E+00  0.2000000E+00  0.3742002E-15  0.1777778E-02
    1       -3.788488   1.000000
    2        0.888103   1.000000
    3        2.872707   1.000000
    4        4.208995   1.000000
    5        6.355788   1.000000
    6        6.958229   1.000000
    7        8.420385   1.000000
    8       10.390611  -0.000000
    9       12.792915   0.000000
   10       14.369867   0.000000

  0.2666667E+00  0.2000000E+00  0.3742002E-15  0.3555556E-02
    1       -3.072869   1.000000
    2        0.233325   1.000000
    3        2.256085   1.000000
    4        4.138403   1.000000
    5        6.495055   1.000000
    6        6.773556   1.000000
    7        8.307036   1.000000
    8       10.521271  -0.000000
    9       13.442968   0.000000
   10       14.604196   0.000000

  0.3333333E+00  0.2000000E+00  0.3742002E-15  0.3555556E-02
    1       -2.268937   1.000000
    2       -0.543660   1.000000
    3        1.871992   1.000000
    4        4.131164   1.000000
    5        6.155846   1.000000
    6        6.925792   1.000000
    7        8.589513   1.000000
    8       10.349346  -0.000000
    9       13.532418   0.000000
   10       15.295562   0.000000

  0.4000000E+00  0.2000000E+00  0.3742002E-15  0.1777778E-02
    1       -1.494740   1.000000
    2       -1.315193   1.000000
    3        1.746736   1.000000
    4        4.138559   1.000000
    5        6.028829   1.000000
    6        6.938060   1.000000
    7        8.849589   1.000076
    8       10.153392  -0.000000
    9       13.522133   0.000000
   10       15.642562   0.000000

  0.2666667E+00  0.2666667E+00  0.3742002E-15  0.1777778E-02
    1       -2.330591   1.000000
    2       -0.181095   1.000000
    3        1.443077   1.000000
    4        4.263377   1.000000
    5        5.897458   1.000000
    6        7.475853   1.000000
    7        8.087363   1.000000
    8       10.279850  -0.000000
    9       14.503917   0.000000
   10       14.537018   0.000000

  0.3333333E+00  0.2666667E+00  0.3742002E-15  0.3555556E-02
    1       -1.547280   1.000000
    2       -0.741593   1.000000
    3        0.968834   1.000000
    4        4.437068   1.000000
    5        5.472574   1.000000
    6        7.713149   1.000000
    7        8.392198   1.000000
    8        9.795533  -0.000000
    9       14.486311   0.000000
   10       15.258276   0.000000

  0.3333333E+00  0.3333333E+00  0.3742002E-15  0.5925926E-03
    1       -0.974567   1.000000
    2       -0.974564   1.000000
    3        0.500187   1.000000
    4        4.889137   1.000000
    5        4.889139   1.000000
    6        8.259906   1.000000
    7        8.259907   1.000000
    8        9.365595  -0.005242
    9       15.069437   0.000000
   10       15.069437   0.000000

  0.3742002E-15  0.3742002E-15  0.6666667E-01  0.5925926E-03
    1       -5.851680   1.000000
    2        4.155773   1.000000
    3        4.155776   1.000000
    4        4.728813   1.000000
    5        6.617372   1.000000
    6        8.050249   1.000000
    7        8.050250   1.000000
    8       11.521366  -0.000000
    9       11.521368  -0.000000
   10       12.223107   0.000000

  0.6666667E-01  0.3766815E-15  0.6666667E-01  0.3555556E-02
    1       -5.768350   1.000000
    2        3.921396   1.000000
    3        4.186014   1.000000
    4        4.742220   1.000000
    5        6.286795   1.000000
    6        8.014150   1.000000
    7        8.479121   1.000000
    8       11.065910  -0.000000
    9       11.141291  -0.000000
   10       12.516833   0.000000

  0.1333333E+00  0.3754153E-15  0.6666667E-01  0.3555556E-02
    1       -5.521343   1.000000
    2        3.305859   1.000000
    3        4.263849   1.000000
    4        4.732147   1.000000
    5        5.791976   1.000000
    6        7.926804   1.000000
    7        9.214019   0.076184
    8       10.409281  -0.000000
    9       10.584515  -0.000000
   10       13.200186   0.000000

  0.2000000E+00  0.3870416E-15  0.6666667E-01  0.3555556E-02
    1       -5.119225   1.000000
    2        2.473001   1.000000
    3        4.355019   1.000000
    4        4.580731   1.000000
    5        5.444039   1.000000
    6        7.840722   1.000000
    7        9.465466  -0.000046
    8       10.142896  -0.000000
    9       10.462278  -0.000000
   10       13.677915   0.000000

  0.2666667E+00  0.4120044E-15  0.6666667E-01  0.3555556E-02
    1       -4.575411   1.000000
    2        1.541802   1.000000
    3        4.305494   1.000000
    4        4.420127   1.000000
    5        5.175008   1.000000
    6        7.806157   1.000000
    7        9.445265  -0.000144
    8        9.845459  -0.000000
    9       10.987978  -0.000000
   10       13.927207   0.000000

  0.3333333E+00  0.4025434E-15  0.6666667E-01  0.3555556E-02
    1       -3.907007   1.000000
    2        0.573349   1.000000
    3        4.041904   1.000000
    4        4.440525   1.000000
    5        4.870826   1.000000
    6        7.829740   1.000000
    7        9.684962  -0.000000
    8        9.744760  -0.000000
    9       11.228112  -0.000000
   10       14.328735   0.000000

  0.4000000E+00  0.3732510E-15  0.6666667E-01  0.3555556E-02
    1       -3.133663   1.000000
    2       -0.400809   1.000000
    3        3.855135   1.000000
    4        4.429387   1.000000
    5        4.589398   1.000000
    6        7.873661   1.000000
    7        9.634529  -0.000000
    8       10.191494  -0.000000
    9       11.306455  -0.000000
   10       14.590717   0.000000

  0.4666667E+00  0.3915456E-15  0.6666667E-01  0.3555556E-02
    1       -2.276775   1.000000
    2       -1.357947   1.000000
    3        3.761414   1.000000
    4        4.414262   1.000000
    5        4.423528   1.000000
    6        7.901343   1.000000
    7        9.637347  -0.000000
    8       10.436071  -0.000000
    9       11.480809  -0.000000
   10       14.592561   0.000000

  0.6666667E-01  0.6666667E-01  0.6666667E-01  0.3555556E-02
    1       -5.603166   1.000000
    2        3.515411   1.000000
    3        4.212439   1.000000
    4        4.744396   1.000000
    5        5.933773   1.000000
    6        7.918071   1.000000
    7        9.058671   1.018426
    8       10.582793  -0.000000
    9       10.684683  -0.000000
   10       13.037200   0.000000

  0.1333333E+00  0.6666667E-01  0.6666667E-01  0.7111111E-02
    1       -5.278495   1.000000
    2        2.831490   1.000000
    3        4.196991   1.000000
    4        4.665961   1.000000
    5        5.652987   1.000000
    6        7.751624   1.000000
    7        9.635011  -0.000000
    8       10.090201  -0.000000
    9       10.421258  -0.000000
   10       13.752165   0.000000

  0.2000000E+00  0.6666667E-01  0.6666667E-01  0.7111111E-02
    1       -4.805248   1.000000
    2        1.988353   1.000000
    3        4.085801   1.000000
    4        4.478904   1.000000
    5        5.536006   1.000000
    6        7.611317   1.000000
    7        9.477884  -0.000022
    8        9.929114  -0.000000
    9       10.914841  -0.000000
   10       14.025924   0.000000

  0.2666667E+00  0.6666667E-01  0.6666667E-01  0.7111111E-02
    1       -4.198640   1.000000
    2        1.067883   1.000000
    3        3.899613   1.000000
    4        4.253120   1.000000
    5        5.433120   1.000000
    6        7.573346   1.000000
    7        9.366877  -0.005007
    8        9.955560  -0.000000
    9       11.392061  -0.000000
   10       14.261419   0.000000

  0.3333333E+00  0.6666667E-01  0.6666667E-01  0.7111111E-02
    1       -3.477186   1.000000
    2        0.115297   1.000000
    3        3.723528   1.000000
    4        4.027632   1.000000
    5        5.295979   1.000000
    6        7.615605   1.000000
    7        9.392191  -0.001864
    8       10.205286  -0.000000
    9       11.552450  -0.000000
   10       14.733071   0.000000

  0.4000000E+00  0.6666667E-01  0.6666667E-01  0.7111111E-02
    1       -2.661870   1.000000
    2       -0.840349   1.000000
    3        3.607491   1.000000
    4        3.857679   1.000000
    5        5.181507   1.000000
    6        7.656871   1.000000
    7        9.480630  -0.000019
    8       10.476707  -0.000000
    9       11.632315  -0.000000
   10       14.744156   0.000000

  0.4666667E+00  0.6666667E-01  0.6666667E-01  0.3555556E-02
    1       -1.804561   1.000000
    2       -1.744677   1.000000
    3        3.567668   1.000000
    4        3.794782   1.000000
    5        5.138302   1.000000
    6        7.669481   1.000000
    7        9.529388  -0.000001
    8       10.573384  -0.000000
    9       11.700996  -0.000000
   10       14.735596   0.000000

  0.1333333E+00  0.1333333E+00  0.6666667E-01  0.3555556E-02
    1       -4.882467   1.000000
    2        2.206602   1.000000
    3        3.874465   1.000000
    4        4.528281   1.000000
    5        5.766119   1.000000
    6        7.417783   1.000000
    7        9.567975  -0.000000
    8        9.918742  -0.000000
    9       10.931764  -0.000000
   10       14.453732   0.000000

  0.2000000E+00  0.1333333E+00  0.6666667E-01  0.7111111E-02
    1       -4.345800   1.000000
    2        1.464441   1.000000
    3        3.463539   1.000000
    4        4.335786   1.000000
    5        5.962592   1.000000
    6        7.129224   1.000000
    7        9.191682   0.199286
    8       10.101677  -0.000000
    9       11.684191  -0.000000
   10       14.302222   0.000000

  0.2666667E+00  0.1333333E+00  0.6666667E-01  0.7111111E-02
    1       -3.685186   1.000000
    2        0.630233   1.000000
    3        3.095494   1.000000
    4        4.144357   1.000000
    5        5.962408   1.000000
    6        7.104828   1.000000
    7        8.998660   1.025607
    8       10.345942  -0.000000
    9       12.175252   0.000000
   10       14.460723   0.000000

  0.3333333E+00  0.1333333E+00  0.6666667E-01  0.7111111E-02
    1       -2.921225   1.000000
    2       -0.262670   1.000000
    3        2.826335   1.000000
    4        4.005647   1.000000
    5        5.792463   1.000000
    6        7.236875   1.000000
    7        9.046249   1.030895
    8       10.507985  -0.000000
    9       12.332161   0.000000
   10       14.847758   0.000000

  0.4000000E+00  0.1333333E+00  0.6666667E-01  0.7111111E-02
    1       -2.080651   1.000000
    2       -1.172620   1.000000
    3        2.685060   1.000000
    4        3.936971   1.000000
    5        5.665537   1.000000
    6        7.304054   1.000000
    7        9.221149   0.047355
    8       10.519728  -0.000000
    9       12.373301   0.000000
   10       15.026396   0.000000

  0.2000000E+00  0.2000000E+00  0.6666667E-01  0.3555556E-02
    1       -3.754793   1.000000
    2        0.895179   1.000000
    3        2.783379   1.000000
    4        4.208045   1.000000
    5        6.502212   1.000000
    6        6.596927   1.000000
    7        8.829106   1.000023
    8       10.400445  -0.000000
    9       12.572105   0.000000
   10       14.183295   0.000000

  0.2666667E+00  0.2000000E+00  0.6666667E-01  0.7111111E-02
    1       -3.051426   1.000000
    2        0.230963   1.000000
    3        2.218540   1.000000
    4        4.143718   1.000000
    5        6.107695   1.000000
    6        7.037980   1.000000
    7        8.629711   1.000000
    8       10.521601  -0.000000
    9       13.189488   0.000000
   10       14.387223   0.000000

  0.3333333E+00  0.2000000E+00  0.6666667E-01  0.7111111E-02
    1       -2.263202   1.000000
    2       -0.547061   1.000000
    3        1.872582   1.000000
    4        4.138274   1.000000
    5        5.763216   1.000000
    6        7.352115   1.000000
    7        8.743083   1.000000
    8       10.359641  -0.000000
    9       13.342406   0.000000
   10       14.941871   0.000000

  0.4000000E+00  0.2000000E+00  0.6666667E-01  0.3555556E-02
    1       -1.538246   1.000000
    2       -1.274575   1.000000
    3        1.760017   1.000000
    4        4.147180   1.000000
    5        5.634449   1.000000
    6        7.421969   1.000000
    7        8.930287   1.003566
    8       10.180059  -0.000000
    9       13.357641   0.000000
   10       15.217099   0.000000

  0.2666667E+00  0.2666667E+00  0.6666667E-01  0.3555556E-02
    1       -2.324237   1.000000
    2       -0.191114   1.000000
    3        1.451486   1.000000
    4        4.250489   1.000000
    5        5.673309   1.000000
    6        7.608972   1.000000
    7        8.393198   1.000000
    8       10.298006  -0.000000
    9       14.201178   0.000000
   10       14.379344   0.000000

  0.3333333E+00  0.2666667E+00  0.6666667E-01  0.7111111E-02
    1       -1.562462   1.000000
    2       -0.750890   1.000000
    3        1.009670   1.000000
    4        4.409169   1.000000
    5        5.297799   1.000000
    6        7.953182   1.000000
    7        8.541347   1.000000
    8        9.839147  -0.000000
    9       14.312359   0.000000
   10       15.008758   0.000000

  0.3333333E+00  0.3333333E+00  0.6666667E-01  0.1185185E-02
    1       -1.002491   1.000000
    2       -1.002488   1.000000
    3        0.576592   1.000000
    4        4.807352   1.000000
    5        4.807354   1.000000
    6        8.435310   1.000000
    7        8.435311   1.000000
    8        9.416763  -0.000617
    9       14.889536   0.000000
   10       14.889536   0.000000

  0.3742002E-15  0.3742002E-15  0.1333333E+00  0.5925926E-03
    1       -5.664676   1.000000
    2        3.963430   1.000000
    3        4.315006   1.000000
    4        4.315008   1.000000
    5        7.192491   1.000000
    6        7.555021   1.000000
    7        7.555023   1.000000
    8       11.092711  -0.000000
    9       11.092713  -0.000000
   10       12.303052   0.000000

  0.6666667E-01  0.3766815E-15  0.1333333E+00  0.3555556E-02
    1       -5.584514   1.000000
    2        3.966269   1.000000
    3        4.076279   1.000000
    4        4.326112   1.000000
    5        6.633286   1.000000
    6        7.519611   1.000000
    7        8.199486   1.000000
    8       10.898148  -0.000000
    9       10.993616  -0.000000
   10       12.600227   0.000000

  0.1333333E+00  0.3754153E-15  0.1333333E+00  0.3555556E-02
    1       -5.347077   1.000000
    2        3.381945   1.000000
    3        4.037879   1.000000
    4        4.341542   1.000000
    5        6.069019   1.000000
    6        7.463679   1.000000
    7        8.901391   1.001069
    8       10.608346  -0.000000
    9       10.774256  -0.000000
   10       13.322031   0.000000

  0.2000000E+00  0.3870416E-15  0.1333333E+00  0.3555556E-02
    1       -4.961368   1.000000
    2        2.499945   1.000000
    3        4.061554   1.000000
    4        4.321822   1.000000
    5        5.616281   1.000000
    6        7.490219   1.000000
    7        9.222912   0.041006
    8       10.525879  -0.000000
    9       10.732355  -0.000000
   10       13.559091   0.000000

  0.2666667E+00  0.4120044E-15  0.1333333E+00  0.3555556E-02
    1       -4.441138   1.000000
    2        1.535972   1.000000
    3        4.038708   1.000000
    4        4.244897   1.000000
    5        5.229022   1.000000
    6        7.663257   1.000000
    7        9.332121  -0.014835
    8       10.281131  -0.000000
    9       11.087062  -0.000000
   10       13.583321   0.000000

  0.3333333E+00  0.4025434E-15  0.1333333E+00  0.3555556E-02
    1       -3.803710   1.000000
    2        0.557192   1.000000
    3        3.983454   1.000000
    4        4.131922   1.000000
    5        4.884818   1.000000
    6        7.960252   1.000000
    7        9.554659  -0.000000
    8       10.050866  -0.000000
    9       11.238783  -0.000000
   10       13.958800   0.000000

  0.4000000E+00  0.3732510E-15  0.1333333E+00  0.3555556E-02
    1       -3.069249   1.000000
    2       -0.403876   1.000000
    3        3.931821   1.000000
    4        4.026446   1.000000
    5        4.610806   1.000000
    6        8.292094   1.000000
    7        9.780692  -0.000000
    8        9.845867  -0.000000
    9       11.412502  -0.000000
   10       14.247293   0.000000

  0.4666667E+00  0.3915456E-15  0.1333333E+00  0.3555556E-02
    1       -2.272358   1.000000
    2       -1.313024   1.000000
    3        3.905304   1.000000
    4        3.964597   1.000000
    5        4.455584   1.000000
    6        8.529628   1.000000
    7        9.702803  -0.000000
    8        9.857715  -0.000000
    9       11.730297  -0.000000
   10       14.049145   0.000000

  0.6666667E-01  0.6666667E-01  0.1333333E+00  0.3555556E-02
    1       -5.425702   1.000000
    2        3.634432   1.000000
    3        3.965007   1.000000
    4        4.339541   1.000000
    5        6.262564   1.000000
    6        7.396435   1.000000
    7        8.791473   1.000002
    8       10.623127  -0.000000
    9       10.855315  -0.000000
   10       13.132506   0.000000

  0.1333333E+00  0.6666667E-01  0.1333333E+00  0.7111111E-02
    1       -5.114065   1.000000
    2        2.904137   1.000000
    3        3.890321   1.000000
    4        4.343854   1.000000
    5        5.964939   1.000000
    6        7.237713   1.000000
    7        9.355318  -0.007452
    8       10.368991  -0.000000
    9       10.769326  -0.000000
   10       13.832453   0.000000

  0.2000000E+00  0.6666667E-01  0.1333333E+00  0.7111111E-02
    1       -4.660900   1.000000
    2        2.011559   1.000000
    3        3.767628   1.000000
    4        4.305894   1.000000
    5        5.684694   1.000000
    6        7.262761   1.000000
    7        9.518221  -0.000002
    8       10.263975  -0.000000
    9       11.023513  -0.000000
   10       13.742727   0.000000

  0.2666667E+00  0.6666667E-01  0.1333333E+00  0.7111111E-02
    1       -4.081800   1.000000
    2        1.061459   1.000000
    3        3.633197   1.000000
    4        4.207995   1.000000
    5        5.363275   1.000000
    6        7.519394   1.000000
    7        9.621285  -0.000000
    8       10.120839  -0.000000
    9       11.332287  -0.000000
   10       13.823260   0.000000

  0.3333333E+00  0.6666667E-01  0.1333333E+00  0.7111111E-02
    1       -3.395502   1.000000
    2        0.105175   1.000000
    3        3.523024   1.000000
    4        4.078954   1.000000
    5        5.064131   1.000000
    6        7.895595   1.000000
    7        9.728210  -0.000000
    8       10.041728  -0.000000
    9       11.472832  -0.000000
   10       14.175251   0.000000

  0.4000000E+00  0.6666667E-01  0.1333333E+00  0.7111111E-02
    1       -2.625983   1.000000
    2       -0.826043   1.000000
    3        3.453944   1.000000
    4        3.973196   1.000000
    5        4.858409   1.000000
    6        8.238400   1.000000
    7        9.656513  -0.000000
    8       10.093909  -0.000000
    9       11.689525  -0.000000
   10       14.220976   0.000000

  0.4666667E+00  0.6666667E-01  0.1333333E+00  0.3555556E-02
    1       -1.948306   1.000000
    2       -1.557402   1.000000
    3        3.430643   1.000000
    4        3.933137   1.000000
    5        4.785782   1.000000
    6        8.384163   1.000000
    7        9.596205  -0.000000
    8       10.115346  -0.000000
    9       11.852453  -0.000000
   10       14.099852   0.000000

  0.1333333E+00  0.1333333E+00  0.1333333E+00  0.3555556E-02
    1       -4.734828   1.000000
    2        2.271814   1.000000
    3        3.520024   1.000000
    4        4.324875   1.000000
    5        6.148182   1.000000
    6        6.805634   1.000000
    7        9.843443  -0.000000
    8       10.044164  -0.000000
    9       11.023948  -0.000000
   10       14.176353   0.000000

  0.2000000E+00  0.1333333E+00  0.1333333E+00  0.7111111E-02
    1       -4.222415   1.000000
    2        1.494397   1.000000
    3        3.165534   1.000000
    4        4.256854   1.000000
    5        6.057222   1.000000
    6        6.803218   1.000000
    7        9.774952  -0.000000
    8       10.141839  -0.000000
    9       11.515774  -0.000000
   10       13.904202   0.000000

  0.2666667E+00  0.1333333E+00  0.1333333E+00  0.7111111E-02
    1       -3.593941   1.000000
    2        0.629817   1.000000
    3        2.901111   1.000000
    4        4.158125   1.000000
    5        5.634260   1.000000
    6        7.280056   1.000000
    7        9.601503  -0.000000
    8       10.313909  -0.000000
    9       11.884643   0.000000
   10       13.972741   0.000000

  0.3333333E+00  0.1333333E+00  0.1333333E+00  0.7111111E-02
    1       -2.871096   1.000000
    2       -0.263659   1.000000
    3        2.726648   1.000000
    4        4.073146   1.000000
    5        5.287165   1.000000
    6        7.785317   1.000000
    7        9.470345  -0.000035
    8       10.399804  -0.000000
    9       12.063320   0.000000
   10       14.247177   0.000000

  0.4000000E+00  0.1333333E+00  0.1333333E+00  0.7111111E-02
    1       -2.097586   1.000000
    2       -1.125443   1.000000
    3        2.639001   1.000000
    4        4.029889   1.000000
    5        5.095210   1.000000
    6        8.125796   1.000000
    7        9.399094  -0.001386
    8       10.390640  -0.000000
    9       12.183567   0.000000
   10       14.342865   0.000000

  0.2000000E+00  0.2000000E+00  0.1333333E+00  0.3555556E-02
    1       -3.660443   1.000000
    2        0.913380   1.000000
    3        2.574081   1.000000
    4        4.191515   1.000000
    5        5.989948   1.000000
    6        6.886448   1.000000
    7        9.541959  -0.000000
    8       10.410442  -0.000000
    9       12.187600   0.000000
   10       13.809140   0.000000

  0.2666667E+00  0.2000000E+00  0.1333333E+00  0.7111111E-02
    1       -2.995003   1.000000
    2        0.224975   1.000000
    3        2.133716   1.000000
    4        4.152352   1.000000
    5        5.555706   1.000000
    6        7.455821   1.000000
    7        9.308443  -0.025249
    8       10.517077  -0.000000
    9       12.727960   0.000000
   10       13.948912   0.000000
