 running on    4 total cores
 distrk:  each k-point on    4 cores,    1 groups
 distr:  one band on    2 cores,    2 groups
 using from now: INCAR     
 vasp.5.4.4.18Apr17-6-g9f103f2a35 (build Dec  7 2020 12:43:57) complex           
 POSCAR found type information on POSCAR  Mo B 
 POSCAR found :  2 types and       3 ions
 scaLAPACK will be used
 LDA part: xc-table for Pade appr. of Perdew
 POSCAR, INCAR and KPOINTS ok, starting setup
 FFT: planning ...
 WAVECAR not read
 augmentation electrons   12.018373587906812     
 soft         electrons   0.0000000000000000     
 augmentation electrons   12.018373587906812     
 soft         electrons   0.0000000000000000     
 augmentation electrons   12.018373587906812     
 soft         electrons   0.0000000000000000     
 augmentation electrons   12.018373587906812     
 soft         electrons   0.0000000000000000     
 total        electrons   12.018373587906812     
 total        electrons   12.018373587906812     
 total        electrons   12.018373587906812     
 total        electrons   12.018373587906812     
 augmentation electrons   169.75791458332097     
 soft         electrons   0.0000000000000000     
 augmentation electrons   169.75791458332097     
 soft         electrons   0.0000000000000000     
 augmentation electrons   169.75791458332097     
 soft         electrons   0.0000000000000000     
 augmentation electrons   169.75791458332097     
 soft         electrons   0.0000000000000000     
 total        electrons   169.75791458332097     
 total        electrons   169.75791458332097     
 total        electrons   169.75791458332097     
 total        electrons   169.75791458332097     
 entering main loop
       N       E                     dE             d eps       ncg     rms          rms(c)
DAV:   1     0.432251149843E+02    0.43225E+02   -0.56840E+03  4320   0.105E+03
DAV:   2    -0.122811211868E+02   -0.55506E+02   -0.52648E+02  5128   0.217E+02
DAV:   3    -0.144429620344E+02   -0.21618E+01   -0.20680E+01  6054   0.380E+01
DAV:   4    -0.144697061973E+02   -0.26744E-01   -0.26480E-01  5522   0.322E+00
DAV:   5    -0.144700966359E+02   -0.39044E-03   -0.39017E-03  5624   0.297E-01    0.324E+01
RMM:   6    -0.117800228247E+02    0.26901E+01   -0.96577E+00  4334   0.209E+01    0.879E+00
RMM:   7    -0.119724526688E+02   -0.19243E+00   -0.52211E-01  4329   0.529E+00    0.506E+00
RMM:   8    -0.121347773395E+02   -0.16232E+00   -0.70059E-01  4320   0.114E+01    0.376E+00
RMM:   9    -0.121110579155E+02    0.23719E-01   -0.15670E-01  4325   0.305E+00    0.118E+00
RMM:  10    -0.121113441991E+02   -0.28628E-03   -0.93201E-03  4322   0.109E+00    0.316E-01
RMM:  11    -0.121141466485E+02   -0.28024E-02   -0.11281E-02  4320   0.120E+00    0.254E-01
RMM:  12    -0.121170710388E+02   -0.29244E-02   -0.11502E-02  4320   0.142E+00    0.163E-01
RMM:  13    -0.121169947688E+02    0.76270E-04   -0.11070E-03  4322   0.362E-01    0.373E-02
RMM:  14    -0.121170795692E+02   -0.84800E-04   -0.84749E-04  4320   0.426E-01    0.422E-02
RMM:  15    -0.121170750843E+02    0.44849E-05   -0.15049E-04  4321   0.177E-01    0.174E-02
RMM:  16    -0.121170850212E+02   -0.99369E-05   -0.54653E-05  4323   0.106E-01    0.804E-03
RMM:  17    -0.121170845797E+02    0.44154E-06   -0.33050E-06  3575   0.262E-02
   1 F= -.12117085E+02 E0= -.12117093E+02  d E =-.121171E+02
 curvature:   0.00 expect dE= 0.000E+00 dE for cont linesearch  0.000E+00
 trial: gam= 0.00000 g(F)=  0.484E-43 g(S)=  0.244E+01 ort = 0.000E+00 (trialstep = 0.100E+01)
 search vector abs. value=  0.244E+01
 bond charge predicted
       N       E                     dE             d eps       ncg     rms          rms(c)
DAV:   1    -0.135966150685E+02   -0.14795E+01   -0.58317E+01  4390   0.696E+01    0.205E+01
RMM:   2    -0.121604232460E+02    0.14362E+01   -0.61741E+00  4320   0.169E+01    0.744E+00
RMM:   3    -0.119017172503E+02    0.25871E+00   -0.37846E-01  4321   0.508E+00    0.609E+00
RMM:   4    -0.119361947099E+02   -0.34477E-01   -0.47872E-01  4321   0.598E+00    0.130E+00
RMM:   5    -0.119250587700E+02    0.11136E-01   -0.10442E-01  4338   0.194E+00    0.451E-01
RMM:   6    -0.119193499497E+02    0.57088E-02   -0.10561E-02  4324   0.114E+00    0.110E-01
RMM:   7    -0.119190280429E+02    0.32191E-03   -0.24201E-03  4355   0.330E-01    0.355E-02
RMM:   8    -0.119190651113E+02   -0.37068E-04   -0.17375E-04  4354   0.139E-01    0.236E-02
RMM:   9    -0.119190837050E+02   -0.18594E-04   -0.89193E-05  4342   0.914E-02    0.106E-02
RMM:  10    -0.119191167044E+02   -0.32999E-04   -0.85816E-05  4327   0.125E-01    0.121E-02
RMM:  11    -0.119191298858E+02   -0.13181E-04   -0.63173E-05  4345   0.102E-01    0.776E-03
RMM:  12    -0.119191345975E+02   -0.47118E-05   -0.57466E-05  4352   0.829E-02    0.511E-03
RMM:  13    -0.119191354654E+02   -0.86790E-06   -0.13075E-05  4218   0.415E-02    0.152E-03
RMM:  14    -0.119191356344E+02   -0.16901E-06   -0.17483E-06  3055   0.138E-02
   2 F= -.11919136E+02 E0= -.11919213E+02  d E =0.197949E+00
 trial-energy change:    0.197949  1 .order   -0.056300   -2.439445    2.326845
 step:   0.4332(harm=  0.5118)  dis= 0.00000  next Energy=   -12.624825 (dE=-0.508E+00)
 bond charge predicted
       N       E                     dE             d eps       ncg     rms          rms(c)
DAV:   1    -0.130500274737E+02   -0.11309E+01   -0.19553E+01  4356   0.436E+01    0.108E+01
RMM:   2    -0.126206747036E+02    0.42935E+00   -0.78370E-01  4320   0.681E+00    0.303E+00
RMM:   3    -0.125876945903E+02    0.32980E-01   -0.10001E-01  4326   0.221E+00    0.146E+00
RMM:   4    -0.125887557192E+02   -0.10611E-02   -0.61164E-02  4320   0.205E+00    0.461E-01
RMM:   5    -0.125909390927E+02   -0.21834E-02   -0.61229E-03  4333   0.646E-01    0.124E-01
RMM:   6    -0.125908639787E+02    0.75114E-04   -0.28829E-04  4414   0.163E-01    0.112E-01
RMM:   7    -0.125904918844E+02    0.37209E-03   -0.18369E-03  4320   0.435E-01    0.419E-02
RMM:   8    -0.125905195140E+02   -0.27630E-04   -0.13834E-04  4328   0.777E-02    0.208E-02
RMM:   9    -0.125905118329E+02    0.76811E-05   -0.19738E-05  4316   0.485E-02    0.136E-02
RMM:  10    -0.125905147869E+02   -0.29540E-05   -0.57026E-06  3867   0.318E-02    0.113E-02
RMM:  11    -0.125905162500E+02   -0.14631E-05   -0.13422E-05  4220   0.501E-02    0.223E-03
RMM:  12    -0.125905165544E+02   -0.30437E-06   -0.14489E-06  2851   0.145E-02
   3 F= -.12590517E+02 E0= -.12590430E+02  d E =-.473432E+00
 curvature:  -0.25 expect dE=-0.855E-03 dE for cont linesearch -0.708E-03
 ZBRENT: interpolating
 opt :   0.4189  next Energy=   -12.591111 (dE=-0.474E+00)
 bond charge predicted
       N       E                     dE             d eps       ncg     rms          rms(c)
DAV:   1    -0.125914489987E+02   -0.93275E-03   -0.12369E-02  4620   0.110E+00    0.327E-01
RMM:   2    -0.125911754437E+02    0.27355E-03   -0.59500E-04  4320   0.181E-01    0.103E-01
RMM:   3    -0.125911626578E+02    0.12786E-04   -0.57577E-05  4326   0.592E-02    0.602E-02
RMM:   4    -0.125911699364E+02   -0.72785E-05   -0.44476E-05  4320   0.617E-02    0.161E-02
RMM:   5    -0.125911717697E+02   -0.18333E-05   -0.48596E-06  3579   0.223E-02    0.371E-03
RMM:   6    -0.125911712341E+02    0.53556E-06   -0.19195E-06  2968   0.160E-02
   4 F= -.12591171E+02 E0= -.12591084E+02  d E =-.474087E+00
 curvature:  -0.21 expect dE=-0.124E-03 dE for cont linesearch -0.120E-04
 ZBRENT: interpolating
 opt :   0.4166  next Energy=   -12.591185 (dE=-0.474E+00)
 bond charge predicted
       N       E                     dE             d eps       ncg     rms          rms(c)
DAV:   1    -0.125911924665E+02   -0.20697E-04   -0.34020E-04  4574   0.180E-01    0.553E-02
RMM:   2    -0.125911849663E+02    0.75002E-05   -0.17329E-05  4266   0.310E-02    0.172E-02
RMM:   3    -0.125911851048E+02   -0.13848E-06   -0.14159E-06  2402   0.978E-03    0.101E-02
RMM:   4    -0.125911858271E+02   -0.72232E-06   -0.12659E-06  2383   0.106E-02    0.266E-03
RMM:   5    -0.125911859896E+02   -0.16247E-06   -0.23402E-07  2270   0.461E-03
   5 F= -.12591186E+02 E0= -.12591098E+02  d E =-.474101E+00
 curvature:  -0.24 expect dE=-0.127E-03 dE for cont linesearch -0.376E-08
 ZBRENT: interpolating
 opt :   0.4166  next Energy=   -12.591186 (dE=-0.474E+00)
 bond charge predicted
       N       E                     dE             d eps       ncg     rms          rms(c)
DAV:   1    -0.125911859417E+02   -0.11465E-06   -0.10384E-07  2740   0.320E-03    0.737E-04
RMM:   2    -0.125911859157E+02    0.26045E-07   -0.32016E-09   675   0.878E-04    0.381E-04
RMM:   3    -0.125911858822E+02    0.33491E-07   -0.59734E-10   250   0.104E-03    0.879E-05
RMM:   4    -0.125911858690E+02    0.13235E-07   -0.92587E-10   144   0.118E-03    0.116E-05
RMM:   5    -0.125911858716E+02   -0.26535E-08    0.76965-120    38   0.111E-03
   6 F= -.12591186E+02 E0= -.12591099E+02  d E =-.474101E+00
 curvature:  -0.24 expect dE=-0.125E-03 dE for cont linesearch -0.188E-08
 ZBRENT: interpolating
 opt :   0.4166  next Energy=   -12.591186 (dE=-0.474E+00)
 bond charge predicted
       N       E                     dE             d eps       ncg     rms          rms(c)
DAV:   1    -0.125911858751E+02   -0.60924E-08   -0.34603E-08  2192   0.187E-03    0.357E-04
RMM:   2    -0.125911858795E+02   -0.44269E-08    0.63542E-33   170   0.547E-04    0.183E-04
RMM:   3    -0.125911858861E+02   -0.66333E-08    0.59352E-49    37   0.604E-04    0.397E-05
RMM:   4    -0.125911858892E+02   -0.31185E-08    0.82234-259    14   0.622E-04    0.939E-06
RMM:   5    -0.125911858890E+02    0.22584E-09    0.00000E+00    10   0.634E-04
   7 F= -.12591186E+02 E0= -.12591099E+02  d E =-.474101E+00
 curvature:  -0.14 expect dE=-0.730E-04 dE for cont linesearch -0.116E-08
 ZBRENT: bisectioning
 opt :   0.4166  next Energy=   -12.591186 (dE=-0.474E+00)
 bond charge predicted
       N       E                     dE             d eps       ncg     rms          rms(c)
DAV:   1    -0.125911858899E+02   -0.65944E-09   -0.49823E-09  2172   0.788E-04    0.125E-04
RMM:   2    -0.125911858925E+02   -0.25947E-08    0.37288E-76    86   0.183E-04    0.513E-05
RMM:   3    -0.125911858948E+02   -0.23098E-08    0.45546-259    13   0.178E-04    0.204E-05
RMM:   4    -0.125911858980E+02   -0.31582E-08    0.00000E+00     7   0.171E-04    0.191E-06
RMM:   5    -0.125911858979E+02    0.57923E-10    0.00000E+00     6   0.174E-04
   8 F= -.12591186E+02 E0= -.12591099E+02  d E =-.474101E+00
 curvature:  -0.19 expect dE=-0.100E-03 dE for cont linesearch -0.235E-09
 trial: gam= 0.00024 g(F)=  0.390E-43 g(S)=  0.523E-03 ort =-0.546E-04 (trialstep = 0.883E+00)
 search vector abs. value=  0.524E-03
 bond charge predicted
       N       E                     dE             d eps       ncg     rms          rms(c)
DAV:   1    -0.125915701163E+02   -0.38422E-03   -0.12388E-02  4432   0.948E-01    0.543E-02
RMM:   2    -0.125915052837E+02    0.64833E-04   -0.33728E-04  4325   0.165E-01    0.618E-02
RMM:   3    -0.125914981397E+02    0.71439E-05   -0.14717E-05  4328   0.279E-02    0.378E-02
RMM:   4    -0.125914960237E+02    0.21160E-05   -0.12595E-05  4316   0.369E-02    0.513E-03
RMM:   5    -0.125914961541E+02   -0.13037E-06   -0.11472E-06  2862   0.112E-02
   9 F= -.12591496E+02 E0= -.12591390E+02  d E =-.310256E-03
 trial-energy change:   -0.000310  1 .order   -0.000309   -0.000462   -0.000155
 step:   1.3303(harm=  1.3303)  dis= 0.00000  next Energy=   -12.591534 (dE=-0.348E-03)
 reached required accuracy - stopping structural energy minimisation
 writing wavefunctions
 augmentation electrons   1.1700450740676076     
 soft         electrons   10.851630042364322     
 augmentation electrons   1.1700450740676076     
 soft         electrons   10.851630042364322     
 augmentation electrons   1.1700450740676076     
 soft         electrons   10.851630042364322     
 augmentation electrons   1.1700450740676076     
 soft         electrons   10.851630042364322     
 total        electrons   12.021675116431929     
 total        electrons   12.021675116431929     
 total        electrons   12.021675116431929     
 total        electrons   12.021675116431929     
