    3    3   60    1
  0.8144830E+01  0.3039000E-09  0.3039000E-09  0.3055000E-09  0.5000000E-15
   1.0000000000000000E-004
  CAR 
 Name                                    
     12    216     10

  0.3742002E-15  0.3742002E-15  0.3742002E-15  0.2962963E-03
    1       -5.903567   1.000000
    2        2.007620   1.000000
    3        4.137169   1.000000
    4        4.829119   1.000000
    5        4.829121   1.000000
    6        9.648484  -0.000000
    7        9.648485  -0.000000
    8       10.143260  -0.000000
    9       10.143264  -0.000000
   10       13.991656   0.000000

  0.6666667E-01  0.3766815E-15  0.3742002E-15  0.1777778E-02
    1       -5.817433   1.000000
    2        2.104429   1.000000
    3        4.070012   1.000000
    4        4.602547   1.000000
    5        4.862873   1.000000
    6        9.603532  -0.000000
    7        9.785253  -0.000000
    8        9.832380  -0.000000
    9        9.926873  -0.000000
   10       13.886150   0.000000

  0.1333333E+00  0.3754153E-15  0.3742002E-15  0.1777778E-02
    1       -5.562208   1.000000
    2        2.366523   1.000000
    3        3.898611   1.000000
    4        3.996040   1.000000
    5        4.939461   1.000000
    6        9.158249  -0.000000
    7        9.479480  -0.000000
    8        9.529867  -0.000000
    9       10.132337  -0.000000
   10       13.765869   0.000000

  0.2000000E+00  0.3870416E-15  0.3742002E-15  0.1777778E-02
    1       -5.146763   1.000000
    2        2.662879   1.000000
    3        3.194656   1.000000
    4        3.685369   1.000000
    5        4.994958   1.000000
    6        8.529538  -0.000000
    7        9.275748  -0.000000
    8        9.304173  -0.000000
    9       10.509629  -0.000000
   10       13.678484   0.000000

  0.2666667E+00  0.4120044E-15  0.3742002E-15  0.1777778E-02
    1       -4.583770   1.000000
    2        2.066846   1.000000
    3        3.092710   1.000000
    4        3.484192   1.000000
    5        4.971760   1.000000
    6        8.248674  -0.000150
    7        9.112875  -0.000000
    8        9.298046  -0.000000
    9       10.663968  -0.000000
   10       13.610985   0.000000

  0.3333333E+00  0.4025434E-15  0.3742002E-15  0.1777778E-02
    1       -3.888406   1.000000
    2        1.020835   1.000000
    3        3.198073   1.000000
    4        3.325716   1.000000
    5        4.875340   1.000000
    6        8.456767  -0.000000
    7        8.938601  -0.000000
    8        9.559794  -0.000000
    9       10.500693  -0.000000
   10       13.563418   0.000000

  0.4000000E+00  0.3732510E-15  0.3742002E-15  0.1777778E-02
    1       -3.079203   1.000000
    2       -0.051486   1.000000
    3        3.170656   1.000000
    4        3.221154   1.000000
    5        4.763929   1.000000
    6        8.807798  -0.000000
    7        9.010237  -0.000000
    8        9.905848  -0.000000
    9       10.220887  -0.000000
   10       13.543592   0.000000

  0.4666667E+00  0.3915456E-15  0.3742002E-15  0.1777778E-02
    1       -2.200399   1.000000
    2       -1.069135   1.000000
    3        3.118709   1.000000
    4        3.170413   1.000000
    5        4.693754   1.000000
    6        8.738105  -0.000000
    7        9.505055  -0.000000
    8       10.034468  -0.000000
    9       10.146416  -0.000000
   10       13.551963   0.000000

  0.6666667E-01  0.6666667E-01  0.3742002E-15  0.1777778E-02
    1       -5.646736   1.000000
    2        2.284526   1.000000
    3        3.951983   1.000000
    4        4.200921   1.000000
    5        4.900765   1.000000
    6        9.384098  -0.000000
    7        9.490735  -0.000000
    8        9.593938  -0.000000
    9       10.056802  -0.000000
   10       13.861524   0.000000

  0.1333333E+00  0.6666667E-01  0.3742002E-15  0.3555556E-02
    1       -5.311324   1.000000
    2        2.580196   1.000000
    3        3.515211   1.000000
    4        3.766702   1.000000
    5        4.923249   1.000000
    6        8.750617  -0.000000
    7        9.262868  -0.000000
    8        9.306010  -0.000000
    9       10.511629  -0.000000
   10       13.834741   0.000000

  0.2000000E+00  0.6666667E-01  0.3742002E-15  0.3555556E-02
    1       -4.821883   1.000000
    2        2.529441   1.000000
    3        2.979757   1.000000
    4        3.574068   1.000000
    5        4.919365   1.000000
    6        8.240306  -0.000234
    7        8.960073  -0.000000
    8        9.299322  -0.000000
    9       10.935448   0.000000
   10       13.781560   0.000000

  0.2666667E+00  0.6666667E-01  0.3742002E-15  0.3555556E-02
    1       -4.192103   1.000000
    2        1.570929   1.000000
    3        3.070306   1.000000
    4        3.414533   1.000000
    5        4.924697   1.000000
    6        8.105112  -0.028620
    7        8.627678  -0.000000
    8        9.553990  -0.000000
    9       11.096700   0.000000
   10       13.735440   0.000000

  0.3333333E+00  0.6666667E-01  0.3742002E-15  0.3555556E-02
    1       -3.438141   1.000000
    2        0.518442   1.000000
    3        3.017750   1.000000
    4        3.304693   1.000000
    5        4.914639   1.000000
    6        8.321256  -0.000002
    7        8.438173  -0.000000
    8        9.884635  -0.000000
    9       11.004707   0.000000
   10       13.741371   0.000000

  0.4000000E+00  0.6666667E-01  0.3742002E-15  0.3555556E-02
    1       -2.583219   1.000000
    2       -0.532587   1.000000
    3        2.918641   1.000000
    4        3.244175   1.000000
    5        4.873183   1.000000
    6        8.102752  -0.029628
    7        9.059293  -0.000000
    8       10.023483  -0.000000
    9       10.865616   0.000000
   10       13.844731   0.000000

  0.4666667E+00  0.6666667E-01  0.3742002E-15  0.1777778E-02
    1       -1.837402   1.000000
    2       -1.346509   1.000000
    3        2.875047   1.000000
    4        3.225436   1.000000
    5        4.850513   1.000000
    6        8.023249   0.055116
    7        9.510893  -0.000000
    8        9.898171  -0.000000
    9       10.808108   0.000000
   10       13.941484   0.000000

  0.1333333E+00  0.1333333E+00  0.3742002E-15  0.1777778E-02
    1       -4.901747   1.000000
    2        2.800305   1.000000
    3        2.865505   1.000000
    4        3.615164   1.000000
    5        4.836076   1.000000
    6        8.245706  -0.000176
    7        8.825664  -0.000000
    8        9.315077  -0.000000
    9       11.133101   0.000000
   10       13.963518   0.000000

  0.2000000E+00  0.1333333E+00  0.3742002E-15  0.3555556E-02
    1       -4.344878   1.000000
    2        2.059926   1.000000
    3        2.820778   1.000000
    4        3.493611   1.000000
    5        4.908166   1.000000
    6        7.829928   1.035111
    7        8.283124  -0.000021
    8        9.625406  -0.000000
    9       11.747589   0.000000
   10       14.529606   0.000000

  0.2666667E+00  0.1333333E+00  0.3742002E-15  0.3555556E-02
    1       -3.654820   1.000000
    2        1.119938   1.000000
    3        2.628921   1.000000
    4        3.424997   1.000000
    5        5.143521   1.000000
    6        7.741212   1.004593
    7        7.762531   1.009429
    8        9.973189  -0.000000
    9       12.076388   0.000000
   10       14.790485   0.000000

  0.3333333E+00  0.1333333E+00  0.3742002E-15  0.3555556E-02
    1       -2.849042   1.000000
    2        0.105244   1.000000
    3        2.416086   1.000000
    4        3.404721   1.000000
    5        5.276148   1.000000
    6        7.301709   1.000000
    7        8.183965  -0.003081
    8       10.027398  -0.000000
    9       12.117353   0.000000
   10       14.402367   0.000000

  0.4000000E+00  0.1333333E+00  0.3742002E-15  0.3555556E-02
    1       -1.962674   1.000000
    2       -0.899231   1.000000
    3        2.292170   1.000000
    4        3.407376   1.000000
    5        5.291386   1.000000
    6        7.053634   1.000000
    7        8.915435  -0.000000
    8        9.627269  -0.000000
    9       12.084354   0.000000
   10       14.777719   0.000000

  0.2000000E+00  0.2000000E+00  0.3742002E-15  0.1777778E-02
    1       -3.727216   1.000000
    2        1.496780   1.000000
    3        2.318470   1.000000
    4        3.483453   1.000000
    5        5.266109   1.000000
    6        7.465005   1.000000
    7        7.518093   1.000000
    8       10.012337  -0.000000
    9       12.661501   0.000000
   10       14.407500   0.000000

  0.2666667E+00  0.2000000E+00  0.3742002E-15  0.3555556E-02
    1       -2.983471   1.000000
    2        0.739039   1.000000
    3        1.824794   1.000000
    4        3.550242   1.000000
    5        5.732319   1.000000
    6        6.814972   1.000000
    7        7.417756   1.000000
    8       10.055364  -0.000000
    9       13.264821   0.000000
   10       14.731346   0.000000

  0.3333333E+00  0.2000000E+00  0.3742002E-15  0.3555556E-02
    1       -2.133565   1.000000
    2       -0.199292   1.000000
    3        1.552565   1.000000
    4        3.655749   1.000000
    5        5.928412   1.000000
    6        6.298349   1.000000
    7        7.932711   0.701361
    8        9.597151  -0.000000
    9       13.392857   0.000000
   10       15.471377   0.000000

  0.4000000E+00  0.2000000E+00  0.3742002E-15  0.1777778E-02
    1       -1.310686   1.000000
    2       -1.065429   1.000000
    3        1.467998   1.000000
    4        3.711360   1.000000
    5        5.947783   1.000000
    6        6.101230   1.000000
    7        8.656246  -0.000000
    8        8.921999  -0.000000
    9       13.398640   0.000000
   10       15.866723   0.000000

  0.2666667E+00  0.2666667E+00  0.3742002E-15  0.1777778E-02
    1       -2.194255   1.000000
    2        0.354977   1.000000
    3        0.980385   1.000000
    4        3.792558   1.000000
    5        5.988842   1.000000
    6        6.478514   1.000000
    7        7.247624   1.000000
    8        9.590577  -0.000000
    9       14.424259   0.000000
   10       14.739955   0.000000

  0.3333333E+00  0.2666667E+00  0.3742002E-15  0.3555556E-02
    1       -1.311849   1.000000
    2       -0.385660   1.000000
    3        0.596197   1.000000
    4        4.072041   1.000000
    5        5.404734   1.000000
    6        6.779733   1.000000
    7        7.763239   1.009637
    8        8.766805  -0.000000
    9       14.602440   0.000000
   10       15.467148   0.000000

  0.3333333E+00  0.3333333E+00  0.3742002E-15  0.5925926E-03
    1       -0.500110   1.000000
    2       -0.500108   1.000000
    3       -0.215231   1.000000
    4        4.656932   1.000000
    5        4.656934   1.000000
    6        7.661026   1.000115
    7        7.661027   1.000115
    8        7.915978   0.818858
    9       15.326382   0.000000
   10       15.326383   0.000000

  0.3742002E-15  0.3742002E-15  0.6666667E-01  0.5925926E-03
    1       -5.852709   1.000000
    2        1.897724   1.000000
    3        4.170126   1.000000
    4        4.868176   1.000000
    5        4.868179   1.000000
    6        9.529224  -0.000000
    7        9.529225  -0.000000
    8       10.050712  -0.000000
    9       10.050715  -0.000000
   10       14.198038   0.000000

  0.6666667E-01  0.3766815E-15  0.6666667E-01  0.3555556E-02
    1       -5.767270   1.000000
    2        1.993753   1.000000
    3        4.104656   1.000000
    4        4.641110   1.000000
    5        4.899136   1.000000
    6        9.359584  -0.000000
    7        9.441042  -0.000000
    8       10.000104  -0.000000
    9       10.010602  -0.000000
   10       14.040233   0.000000

  0.1333333E+00  0.3754153E-15  0.6666667E-01  0.3555556E-02
    1       -5.514174   1.000000
    2        2.256369   1.000000
    3        3.862104   1.000000
    4        4.108688   1.000000
    5        4.964901   1.000000
    6        8.937292  -0.000000
    7        9.034071  -0.000000
    8        9.901142  -0.000000
    9       10.227916  -0.000000
   10       13.873338   0.000000

  0.2000000E+00  0.3870416E-15  0.6666667E-01  0.3555556E-02
    1       -5.102260   1.000000
    2        2.592428   1.000000
    3        3.102719   1.000000
    4        3.822483   1.000000
    5        4.997478   1.000000
    6        8.378418  -0.000000
    7        8.821628  -0.000000
    8        9.759518  -0.000000
    9       10.556362  -0.000000
   10       13.798080   0.000000

  0.2666667E+00  0.4120044E-15  0.6666667E-01  0.3555556E-02
    1       -4.544194   1.000000
    2        2.066963   1.000000
    3        2.938355   1.000000
    4        3.629941   1.000000
    5        4.941384   1.000000
    6        8.120186  -0.021742
    7        8.822590  -0.000000
    8        9.654257  -0.000000
    9       10.685543  -0.000000
   10       13.822830   0.000000

  0.3333333E+00  0.4025434E-15  0.6666667E-01  0.3555556E-02
    1       -3.854683   1.000000
    2        1.008968   1.000000
    3        3.093001   1.000000
    4        3.461391   1.000000
    5        4.814105   1.000000
    6        8.295222  -0.000010
    7        8.909434  -0.000000
    8        9.705173  -0.000000
    9       10.559596  -0.000000
   10       13.763553   0.000000

  0.4000000E+00  0.3732510E-15  0.6666667E-01  0.3555556E-02
    1       -3.050921   1.000000
    2       -0.064178   1.000000
    3        3.131997   1.000000
    4        3.320455   1.000000
    5        4.682141   1.000000
    6        8.719332  -0.000000
    7        8.918121  -0.000000
    8        9.943815  -0.000000
    9       10.433734  -0.000000
   10       13.604405   0.000000

  0.4666667E+00  0.3915456E-15  0.6666667E-01  0.3555556E-02
    1       -2.167673   1.000000
    2       -1.088533   1.000000
    3        3.122980   1.000000
    4        3.243897   1.000000
    5        4.602290   1.000000
    6        8.894216  -0.000000
    7        8.994845  -0.000000
    8       10.153832  -0.000000
    9       10.504430  -0.000000
   10       13.455092   0.000000

  0.6666667E-01  0.6666667E-01  0.6666667E-01  0.3555556E-02
    1       -5.597990   1.000000
    2        2.173585   1.000000
    3        3.983482   1.000000
    4        4.233437   1.000000
    5        4.943326   1.000000
    6        8.948381  -0.000000
    7        9.327566  -0.000000
    8        9.810492  -0.000000
    9       10.203880  -0.000000
   10       13.988446   0.000000

  0.1333333E+00  0.6666667E-01  0.6666667E-01  0.7111111E-02
    1       -5.265422   1.000000
    2        2.478759   1.000000
    3        3.500493   1.000000
    4        3.820135   1.000000
    5        4.978703   1.000000
    6        8.396422  -0.000000
    7        9.076423  -0.000000
    8        9.651307  -0.000000
    9       10.559466  -0.000000
   10       13.964083   0.000000

  0.2000000E+00  0.6666667E-01  0.6666667E-01  0.7111111E-02
    1       -4.780249   1.000000
    2        2.551367   1.000000
    3        2.847644   1.000000
    4        3.619714   1.000000
    5        4.971060   1.000000
    6        7.937598   0.663280
    7        8.976846  -0.000000
    8        9.502781  -0.000000
    9       10.918717   0.000000
   10       13.970404   0.000000

  0.2666667E+00  0.6666667E-01  0.6666667E-01  0.7111111E-02
    1       -4.155976   1.000000
    2        1.565464   1.000000
    3        3.014894   1.000000
    4        3.440816   1.000000
    5        4.931919   1.000000
    6        7.798480   1.023607
    7        8.909865  -0.000000
    8        9.559283  -0.000000
    9       11.067049   0.000000
   10       13.976226   0.000000

  0.3333333E+00  0.6666667E-01  0.6666667E-01  0.7111111E-02
    1       -3.408085   1.000000
    2        0.507514   1.000000
    3        3.020013   1.000000
    4        3.329464   1.000000
    5        4.854634   1.000000
    6        7.991655   0.227488
    7        8.835015  -0.000000
    8        9.804756  -0.000000
    9       11.051624   0.000000
   10       13.862658   0.000000

  0.4000000E+00  0.6666667E-01  0.6666667E-01  0.7111111E-02
    1       -2.556823   1.000000
    2       -0.544536   1.000000
    3        2.932737   1.000000
    4        3.297433   1.000000
    5        4.765299   1.000000
    6        8.112354  -0.025359
    7        9.090250  -0.000000
    8        9.931278  -0.000000
    9       11.037654   0.000000
   10       13.792510   0.000000

  0.4666667E+00  0.6666667E-01  0.6666667E-01  0.3555556E-02
    1       -1.780330   1.000000
    2       -1.390383   1.000000
    3        2.889838   1.000000
    4        3.292289   1.000000
    5        4.726531   1.000000
    6        8.103039  -0.029507
    7        9.354270  -0.000000
    8        9.911063  -0.000000
    9       11.031588   0.000000
   10       13.784947   0.000000

  0.1333333E+00  0.1333333E+00  0.6666667E-01  0.3555556E-02
    1       -4.859447   1.000000
    2        2.743696   1.000000
    3        2.887145   1.000000
    4        3.525387   1.000000
    5        4.971845   1.000000
    6        7.806434   1.027259
    7        9.235516  -0.000000
    8        9.249975  -0.000000
    9       11.083043   0.000000
   10       14.712907   0.000000

  0.2000000E+00  0.1333333E+00  0.6666667E-01  0.7111111E-02
    1       -4.307554   1.000000
    2        2.070841   1.000000
    3        2.837887   1.000000
    4        3.342635   1.000000
    5        5.056234   1.000000
    6        7.336772   1.000000
    7        8.801418  -0.000000
    8        9.565727  -0.000000
    9       11.613741   0.000000
   10       14.307093   0.000000

  0.2666667E+00  0.1333333E+00  0.6666667E-01  0.7111111E-02
    1       -3.623599   1.000000
    2        1.117170   1.000000
    3        2.648762   1.000000
    4        3.357704   1.000000
    5        5.182562   1.000000
    6        7.179472   1.000000
    7        8.432297  -0.000000
    8        9.897379  -0.000000
    9       11.953184   0.000000
   10       14.250824   0.000000

  0.3333333E+00  0.1333333E+00  0.6666667E-01  0.7111111E-02
    1       -2.823933   1.000000
    2        0.097801   1.000000
    3        2.433370   1.000000
    4        3.414235   1.000000
    5        5.161233   1.000000
    6        7.263832   1.000000
    7        8.430689  -0.000000
    8        9.947184  -0.000000
    9       12.096148   0.000000
   10       14.332275   0.000000

  0.4000000E+00  0.1333333E+00  0.6666667E-01  0.7111111E-02
    1       -1.936363   1.000000
    2       -0.911867   1.000000
    3        2.310574   1.000000
    4        3.456419   1.000000
    5        5.081118   1.000000
    6        7.248425   1.000000
    7        8.959574  -0.000000
    8        9.590749  -0.000000
    9       12.122044   0.000000
   10       14.534394   0.000000

  0.2000000E+00  0.2000000E+00  0.6666667E-01  0.3555556E-02
    1       -3.695572   1.000000
    2        1.506642   1.000000
    3        2.325270   1.000000
    4        3.379294   1.000000
    5        5.416591   1.000000
    6        6.766283   1.000000
    7        8.263848  -0.000064
    8        9.944339  -0.000000
    9       12.414360   0.000000
   10       14.353795   0.000000

  0.2666667E+00  0.2000000E+00  0.6666667E-01  0.7111111E-02
    1       -2.958584   1.000000
    2        0.738896   1.000000
    3        1.831878   1.000000
    4        3.517271   1.000000
    5        5.723024   1.000000
    6        6.501475   1.000000
    7        7.907221   0.870588
    8        9.992243  -0.000000
    9       13.059674   0.000000
   10       14.514238   0.000000

  0.3333333E+00  0.2000000E+00  0.6666667E-01  0.7111111E-02
    1       -2.114858   1.000000
    2       -0.203336   1.000000
    3        1.567815   1.000000
    4        3.667807   1.000000
    5        5.521460   1.000000
    6        6.663345   1.000000
    7        8.096032  -0.032230
    8        9.566189  -0.000000
    9       13.320620   0.000000
   10       14.977526   0.000000

  0.4000000E+00  0.2000000E+00  0.6666667E-01  0.3555556E-02
    1       -1.263220   1.000000
    2       -1.100633   1.000000
    3        1.485927   1.000000
    4        3.742907   1.000000
    5        5.381298   1.000000
    6        6.691376   1.000000
    7        8.716121  -0.000000
    8        8.923068  -0.000000
    9       13.359122   0.000000
   10       15.277877   0.000000

  0.2666667E+00  0.2666667E+00  0.6666667E-01  0.3555556E-02
    1       -2.176858   1.000000
    2        0.350453   1.000000
    3        0.995683   1.000000
    4        3.777543   1.000000
    5        5.709347   1.000000
    6        6.565200   1.000000
    7        7.603374   1.000003
    8        9.562701  -0.000000
    9       14.161739   0.000000
   10       14.677713   0.000000

  0.3333333E+00  0.2666667E+00  0.6666667E-01  0.7111111E-02
    1       -1.302618   1.000000
    2       -0.387974   1.000000
    3        0.617519   1.000000
    4        4.065434   1.000000
    5        5.210520   1.000000
    6        6.986461   1.000000
    7        7.890342   0.948842
    8        8.780922  -0.000000
    9       14.509804   0.000000
   10       15.254191   0.000000

  0.3333333E+00  0.3333333E+00  0.6666667E-01  0.1185185E-02
    1       -0.520764   1.000000
    2       -0.520762   1.000000
    3       -0.146107   1.000000
    4        4.598876   1.000000
    5        4.598878   1.000000
    6        7.809138   1.028458
    7        7.809139   1.028459
    8        7.897055   0.921159
    9       15.209345   0.000000
   10       15.209346   0.000000

  0.3742002E-15  0.3742002E-15  0.1333333E+00  0.5925926E-03
    1       -5.703527   1.000000
    2        1.590059   1.000000
    3        4.262728   1.000000
    4        4.984817   1.000000
    5        4.984819   1.000000
    6        9.234026  -0.000000
    7        9.234028  -0.000000
    8        9.786984  -0.000000
    9        9.786987  -0.000000
   10       14.924466   0.000000

  0.6666667E-01  0.3766815E-15  0.1333333E+00  0.3555556E-02
    1       -5.620260   1.000000
    2        1.685428   1.000000
    3        4.203266   1.000000
    4        4.754432   1.000000
    5        5.007028   1.000000
    6        8.933786  -0.000000
    7        8.976887  -0.000000
    8        9.970285  -0.000000
    9        9.988081  -0.000000
   10       14.488919   0.000000

  0.1333333E+00  0.3754153E-15  0.1333333E+00  0.3555556E-02
    1       -5.373698   1.000000
    2        1.950115   1.000000
    3        3.891968   1.000000
    4        4.300367   1.000000
    5        5.039418   1.000000
    6        8.462207  -0.000000
    7        8.551589  -0.000000
    8       10.156366  -0.000000
    9       10.323327  -0.000000
   10       14.180602   0.000000

  0.2000000E+00  0.3870416E-15  0.1333333E+00  0.3555556E-02
    1       -4.972776   1.000000
    2        2.315402   1.000000
    3        3.074251   1.000000
    4        4.068440   1.000000
    5        5.002339   1.000000
    6        7.979098   0.320382
    7        8.401008  -0.000000
    8       10.173461  -0.000000
    9       10.657875  -0.000000
   10       13.988700   0.000000

  0.2666667E+00  0.4120044E-15  0.1333333E+00  0.3555556E-02
    1       -4.429979   1.000000
    2        2.047886   1.000000
    3        2.697046   1.000000
    4        3.874813   1.000000
    5        4.855326   1.000000
    6        7.759443   1.008560
    7        8.548244  -0.000000
    8       10.111128  -0.000000
    9       10.792632   0.000000
   10       14.034217   0.000000

  0.3333333E+00  0.4025434E-15  0.1333333E+00  0.3555556E-02
    1       -3.759130   1.000000
    2        0.983524   1.000000
    3        2.964351   1.000000
    4        3.671634   1.000000
    5        4.651623   1.000000
    6        7.880321   0.981939
    7        8.879257  -0.000000
    8       10.055269  -0.000000
    9       10.745583   0.000000
   10       14.019836   0.000000

  0.4000000E+00  0.3732510E-15  0.1333333E+00  0.3555556E-02
    1       -2.974297   1.000000
    2       -0.084584   1.000000
    3        3.105600   1.000000
    4        3.506050   1.000000
    5        4.472387   1.000000
    6        8.150487  -0.009904
    7        9.180507  -0.000000
    8       10.085124  -0.000000
    9       10.810999   0.000000
   10       13.604631   0.000000

  0.4666667E+00  0.3915456E-15  0.1333333E+00  0.3555556E-02
    1       -2.091828   1.000000
    2       -1.114204   1.000000
    3        3.137567   1.000000
    4        3.436548   1.000000
    5        4.371181   1.000000
    6        8.304725  -0.000005
    7        9.311455  -0.000000
    8       10.179298  -0.000000
    9       11.083621   0.000000
   10       13.200562   0.000000

  0.6666667E-01  0.6666667E-01  0.1333333E+00  0.3555556E-02
    1       -5.455344   1.000000
    2        1.865964   1.000000
    3        4.078913   1.000000
    4        4.330155   1.000000
    5        5.060629   1.000000
    6        8.419099  -0.000000
    7        8.858527  -0.000000
    8        9.991469  -0.000000
    9       10.319166  -0.000000
   10       14.362368   0.000000

  0.1333333E+00  0.6666667E-01  0.1333333E+00  0.7111111E-02
    1       -5.131578   1.000000
    2        2.185108   1.000000
    3        3.527438   1.000000
    4        3.940429   1.000000
    5        5.114544   1.000000
    6        7.844789   1.033717
    7        8.723043  -0.000000
    8       10.020917  -0.000000
    9       10.653870  -0.000000
   10       14.269391   0.000000

  0.2000000E+00  0.6666667E-01  0.1333333E+00  0.7111111E-02
    1       -4.659626   1.000000
    2        2.520120   1.000000
    3        2.626986   1.000000
    4        3.723718   1.000000
    5        5.081760   1.000000
    6        7.436711   1.000000
    7        8.767732  -0.000000
    8        9.958673  -0.000000
    9       10.937005   0.000000
   10       14.184960   0.000000

  0.2666667E+00  0.6666667E-01  0.1333333E+00  0.7111111E-02
    1       -4.052608   1.000000
    2        1.550232   1.000000
    3        2.878412   1.000000
    4        3.510379   1.000000
    5        4.929904   1.000000
    6        7.375680   1.000000
    7        9.006431  -0.000000
    8        9.832499  -0.000000
    9       11.079395   0.000000
   10       14.164348   0.000000

  0.3333333E+00  0.6666667E-01  0.1333333E+00  0.7111111E-02
    1       -3.324385   1.000000
    2        0.487892   1.000000
    3        3.021224   1.000000
    4        3.389486   1.000000
    5        4.702804   1.000000
    6        7.646954   1.000052
    7        9.228958  -0.000000
    8        9.777633  -0.000000
    9       11.179139   0.000000
   10       13.909189   0.000000

  0.4000000E+00  0.6666667E-01  0.1333333E+00  0.7111111E-02
    1       -2.489518   1.000000
    2       -0.559493   1.000000
    3        2.969648   1.000000
    4        3.435758   1.000000
    5        4.502448   1.000000
    6        7.954866   0.520681
    7        9.318161  -0.000000
    8        9.873100  -0.000000
    9       11.349126   0.000000
   10       13.588139   0.000000

  0.4666667E+00  0.6666667E-01  0.1333333E+00  0.3555556E-02
    1       -1.613215   1.000000
    2       -1.508605   1.000000
    3        2.928630   1.000000
    4        3.476078   1.000000
    5        4.421266   1.000000
    6        8.061206  -0.028712
    7        9.356316  -0.000000
    8        9.949287  -0.000000
    9       11.449127   0.000000
   10       13.426813   0.000000

  0.1333333E+00  0.1333333E+00  0.1333333E+00  0.3555556E-02
    1       -4.736722   1.000000
    2        2.515283   1.000000
    3        2.951033   1.000000
    4        3.446639   1.000000
    5        5.248542   1.000000
    6        7.191990   1.000000
    7        8.988848  -0.000000
    8        9.796562  -0.000000
    9       11.033789   0.000000
   10       14.609031   0.000000

  0.2000000E+00  0.1333333E+00  0.1333333E+00  0.7111111E-02
    1       -4.200309   1.000000
    2        2.098788   1.000000
    3        2.832212   1.000000
    4        3.086940   1.000000
    5        5.343592   1.000000
    6        6.742912   1.000000
    7        9.280889  -0.000000
    8        9.559041  -0.000000
    9       11.423593   0.000000
   10       14.284267   0.000000

  0.2666667E+00  0.1333333E+00  0.1333333E+00  0.7111111E-02
    1       -3.535499   1.000000
    2        1.114033   1.000000
    3        2.705710   1.000000
    4        3.197333   1.000000
    5        5.205374   1.000000
    6        6.800249   1.000000
    7        9.146948  -0.000000
    8        9.697163  -0.000000
    9       11.771668   0.000000
   10       14.155271   0.000000

  0.3333333E+00  0.1333333E+00  0.1333333E+00  0.7111111E-02
    1       -2.756477   1.000000
    2        0.088518   1.000000
    3        2.484102   1.000000
    4        3.426533   1.000000
    5        4.891055   1.000000
    6        7.229755   1.000000
    7        8.993428  -0.000000
    8        9.760291  -0.000000
    9       12.067749   0.000000
   10       14.075912   0.000000

  0.4000000E+00  0.1333333E+00  0.1333333E+00  0.7111111E-02
    1       -1.879072   1.000000
    2       -0.921480   1.000000
    3        2.363686   1.000000
    4        3.585892   1.000000
    5        4.650311   1.000000
    6        7.545023   1.000000
    7        9.148790  -0.000000
    8        9.547729  -0.000000
    9       12.218138   0.000000
   10       14.063747   0.000000

  0.2000000E+00  0.2000000E+00  0.1333333E+00  0.3555556E-02
    1       -3.606017   1.000000
    2        1.535181   1.000000
    3        2.339014   1.000000
    4        3.166280   1.000000
    5        5.760063   1.000000
    6        6.109823   1.000000
    7        9.049612  -0.000000
    8        9.740506  -0.000000
    9       12.050992   0.000000
   10       14.226891   0.000000

  0.2666667E+00  0.2000000E+00  0.1333333E+00  0.7111111E-02
    1       -2.890223   1.000000
    2        0.741834   1.000000
    3        1.858341   1.000000
    4        3.440090   1.000000
    5        5.465583   1.000000
    6        6.442299   1.000000
    7        8.669123  -0.000000
    8        9.819511  -0.000000
    9       12.705258   0.000000
   10       14.301002   0.000000
