 running on    4 total cores
 distrk:  each k-point on    4 cores,    1 groups
 distr:  one band on    2 cores,    2 groups
 using from now: INCAR     
 vasp.5.4.4.18Apr17-6-g9f103f2a35 (build Dec  7 2020 12:43:57) complex           
 POSCAR found type information on POSCAR  Mo B 
 POSCAR found :  2 types and       3 ions
 scaLAPACK will be used
 LDA part: xc-table for Pade appr. of Perdew
 POSCAR, INCAR and KPOINTS ok, starting setup
 FFT: planning ...
 WAVECAR not read
 augmentation electrons   12.018373587906812     
 soft         electrons   0.0000000000000000     
 augmentation electrons   12.018373587906812     
 soft         electrons   0.0000000000000000     
 augmentation electrons   12.018373587906812     
 soft         electrons   0.0000000000000000     
 augmentation electrons   12.018373587906812     
 soft         electrons   0.0000000000000000     
 total        electrons   12.018373587906812     
 total        electrons   12.018373587906812     
 total        electrons   12.018373587906812     
 total        electrons   12.018373587906812     
 augmentation electrons   169.75791458332097     
 soft         electrons   0.0000000000000000     
 augmentation electrons   169.75791458332097     
 soft         electrons   0.0000000000000000     
 augmentation electrons   169.75791458332097     
 soft         electrons   0.0000000000000000     
 augmentation electrons   169.75791458332097     
 soft         electrons   0.0000000000000000     
 total        electrons   169.75791458332097     
 total        electrons   169.75791458332097     
 total        electrons   169.75791458332097     
 total        electrons   169.75791458332097     
 entering main loop
       N       E                     dE             d eps       ncg     rms          rms(c)
DAV:   1     0.372319048843E+02    0.37232E+02   -0.57092E+03  4320   0.105E+03
DAV:   2    -0.194405935433E+02   -0.56672E+02   -0.53744E+02  5174   0.218E+02
DAV:   3    -0.216462508510E+02   -0.22057E+01   -0.21076E+01  6104   0.379E+01
DAV:   4    -0.216738410393E+02   -0.27590E-01   -0.27126E-01  5558   0.317E+00
DAV:   5    -0.216742403272E+02   -0.39929E-03   -0.39875E-03  5606   0.291E-01    0.342E+01
RMM:   6    -0.174052057370E+02    0.42690E+01   -0.14388E+01  4337   0.245E+01    0.786E+00
RMM:   7    -0.174900475056E+02   -0.84842E-01   -0.60728E-01  4331   0.526E+00    0.476E+00
RMM:   8    -0.176096492613E+02   -0.11960E+00   -0.80050E-01  4320   0.113E+01    0.417E+00
RMM:   9    -0.175519377138E+02    0.57712E-01   -0.16764E-01  4322   0.295E+00    0.826E-01
RMM:  10    -0.175501172361E+02    0.18205E-02   -0.12157E-02  4337   0.138E+00    0.459E-01
RMM:  11    -0.175491816204E+02    0.93562E-03   -0.59501E-03  4320   0.821E-01    0.151E-01
RMM:  12    -0.175505594055E+02   -0.13778E-02   -0.58420E-03  4320   0.107E+00    0.486E-02
RMM:  13    -0.175505930862E+02   -0.33681E-04   -0.16364E-04  4346   0.764E-02    0.687E-02
RMM:  14    -0.175505554753E+02    0.37611E-04   -0.20141E-04  4320   0.133E-01    0.105E-02
RMM:  15    -0.175505613781E+02   -0.59028E-05   -0.17445E-05  4184   0.280E-02    0.241E-02
RMM:  16    -0.175505552887E+02    0.60894E-05   -0.14291E-05  4297   0.331E-02    0.463E-03
RMM:  17    -0.175505555175E+02   -0.22880E-06   -0.12197E-06  2809   0.979E-03
   1 F= -.17550556E+02 E0= -.17550537E+02  d E =-.175506E+02
 curvature:   0.00 expect dE= 0.000E+00 dE for cont linesearch  0.000E+00
 trial: gam= 0.00000 g(F)=  0.727E-43 g(S)=  0.103E+01 ort = 0.000E+00 (trialstep = 0.100E+01)
 search vector abs. value=  0.103E+01
 bond charge predicted
       N       E                     dE             d eps       ncg     rms          rms(c)
DAV:   1    -0.179736253151E+02   -0.42307E+00   -0.25226E+01  4358   0.481E+01    0.151E+01
RMM:   2    -0.174650003465E+02    0.50862E+00   -0.13965E+00  4320   0.819E+00    0.577E+00
RMM:   3    -0.174042730799E+02    0.60727E-01   -0.11874E-01  4320   0.286E+00    0.389E+00
RMM:   4    -0.174048071808E+02   -0.53410E-03   -0.97081E-02  4320   0.279E+00    0.662E-01
RMM:   5    -0.174065802157E+02   -0.17730E-02   -0.12136E-02  4335   0.786E-01    0.208E-01
RMM:   6    -0.174052402085E+02    0.13400E-02   -0.44478E-03  4320   0.664E-01    0.379E-02
RMM:   7    -0.174053521104E+02   -0.11190E-03   -0.41213E-04  4331   0.134E-01    0.308E-02
RMM:   8    -0.174053653927E+02   -0.13282E-04   -0.53515E-05  4337   0.722E-02    0.151E-02
RMM:   9    -0.174054027306E+02   -0.37338E-04   -0.87977E-05  4329   0.120E-01    0.824E-03
RMM:  10    -0.174054060379E+02   -0.33072E-05   -0.15622E-05  4014   0.439E-02    0.717E-03
RMM:  11    -0.174054049482E+02    0.10897E-05   -0.14233E-05  4321   0.386E-02    0.312E-03
RMM:  12    -0.174054051858E+02   -0.23762E-06   -0.99821E-07  2771   0.117E-02
   2 F= -.17405405E+02 E0= -.17405513E+02  d E =0.145150E+00
 trial-energy change:    0.145150  1 .order    0.068447   -1.031182    1.168077
 step:   0.4180(harm=  0.4689)  dis= 0.00000  next Energy=   -17.760456 (dE=-0.210E+00)
 bond charge predicted
       N       E                     dE             d eps       ncg     rms          rms(c)
DAV:   1    -0.179299742279E+02   -0.52457E+00   -0.88522E+00  4350   0.300E+01    0.812E+00
RMM:   2    -0.177671982810E+02    0.16278E+00   -0.26235E-01  4320   0.389E+00    0.282E+00
RMM:   3    -0.177497046621E+02    0.17494E-01   -0.38051E-02  4320   0.153E+00    0.136E+00
RMM:   4    -0.177496096298E+02    0.95032E-04   -0.22794E-02  4320   0.138E+00    0.352E-01
RMM:   5    -0.177503479327E+02   -0.73830E-03   -0.21035E-03  4345   0.518E-01    0.704E-02
RMM:   6    -0.177501689731E+02    0.17896E-03   -0.68713E-04  4322   0.294E-01    0.316E-02
RMM:   7    -0.177501918131E+02   -0.22840E-04   -0.10485E-04  4326   0.830E-02    0.184E-02
RMM:   8    -0.177501882602E+02    0.35528E-05   -0.19063E-05  4309   0.426E-02    0.670E-03
RMM:   9    -0.177501940054E+02   -0.57452E-05   -0.13990E-05  4042   0.509E-02    0.274E-03
RMM:  10    -0.177501941601E+02   -0.15473E-06   -0.10027E-06  2856   0.925E-03
   3 F= -.17750194E+02 E0= -.17750239E+02  d E =-.199639E+00
 curvature:  -0.23 expect dE=-0.664E-02 dE for cont linesearch -0.161E-03
 ZBRENT: interpolating
 opt :   0.4074  next Energy=   -17.750335 (dE=-0.200E+00)
 bond charge predicted
       N       E                     dE             d eps       ncg     rms          rms(c)
DAV:   1    -0.177504096437E+02   -0.21564E-03   -0.28985E-03  4668   0.541E-01    0.169E-01
RMM:   2    -0.177503597621E+02    0.49882E-04   -0.93075E-05  4319   0.712E-02    0.638E-02
RMM:   3    -0.177503570248E+02    0.27373E-05   -0.12577E-05  4320   0.296E-02    0.329E-02
RMM:   4    -0.177503593782E+02   -0.23534E-05   -0.81402E-06  4302   0.278E-02    0.718E-03
RMM:   5    -0.177503596998E+02   -0.32158E-06   -0.62386E-07  2458   0.104E-02
   4 F= -.17750360E+02 E0= -.17750404E+02  d E =-.199804E+00
 curvature:  -0.20 expect dE=-0.539E-02 dE for cont linesearch -0.108E-05
 trial: gam= 0.02793 g(F)=  0.818E-43 g(S)=  0.265E-01 ort =-0.234E-02 (trialstep = 0.881E+00)
 search vector abs. value=  0.271E-01
 bond charge predicted
       N       E                     dE             d eps       ncg     rms          rms(c)
DAV:   1    -0.177688242513E+02   -0.18465E-01   -0.66679E-01  4368   0.692E+00    0.404E-01
RMM:   2    -0.177657090104E+02    0.31152E-02   -0.16392E-02  4326   0.115E+00    0.409E-01
RMM:   3    -0.177653842858E+02    0.32472E-03   -0.64188E-04  4357   0.189E-01    0.247E-01
RMM:   4    -0.177653496329E+02    0.34653E-04   -0.58616E-04  4320   0.253E-01    0.399E-02
RMM:   5    -0.177654148879E+02   -0.65255E-04   -0.15028E-04  4320   0.126E-01    0.530E-02
RMM:   6    -0.177654637885E+02   -0.48901E-04   -0.59448E-05  4322   0.966E-02    0.210E-02
RMM:   7    -0.177654981972E+02   -0.34409E-04   -0.47706E-05  4311   0.953E-02    0.119E-02
RMM:   8    -0.177655114661E+02   -0.13269E-04   -0.67140E-05  4319   0.111E-01    0.907E-03
RMM:   9    -0.177655114821E+02   -0.16041E-07   -0.26848E-06  3205   0.134E-02
   5 F= -.17765511E+02 E0= -.17765455E+02  d E =-.151518E-01
 trial-energy change:   -0.015152  1 .order   -0.015708   -0.023267   -0.008149
 step:   1.7137(harm=  1.3566)  dis= 0.00000  next Energy=   -17.768890 (dE=-0.185E-01)
 bond charge predicted
       N       E                     dE             d eps       ncg     rms          rms(c)
DAV:   1    -0.177702111182E+02   -0.46997E-02   -0.59634E-01  4390   0.652E+00    0.366E-01
RMM:   2    -0.177679702412E+02    0.22409E-02   -0.13901E-02  4326   0.107E+00    0.376E-01
RMM:   3    -0.177679083003E+02    0.61941E-04   -0.54278E-04  4365   0.181E-01    0.232E-01
RMM:   4    -0.177682949340E+02   -0.38663E-03   -0.53228E-04  4320   0.283E-01    0.626E-02
RMM:   5    -0.177686503640E+02   -0.35543E-03   -0.51789E-04  4320   0.270E-01    0.883E-02
RMM:   6    -0.177688956584E+02   -0.24529E-03   -0.34964E-04  4320   0.246E-01    0.397E-02
RMM:   7    -0.177691266430E+02   -0.23098E-03   -0.84255E-04  4320   0.406E-01    0.209E-02
RMM:   8    -0.177691495727E+02   -0.22930E-04   -0.21095E-04  4326   0.179E-01    0.926E-03
RMM:   9    -0.177691502968E+02   -0.72410E-06   -0.96692E-06  3587   0.200E-02
   6 F= -.17769150E+02 E0= -.17769230E+02  d E =-.187906E-01
 curvature:  -0.30 expect dE=-0.260E-03 dE for cont linesearch -0.495E-04
 ZBRENT: extrapolating
 opt :   1.9589  next Energy=   -17.769408 (dE=-0.190E-01)
 bond charge predicted
       N       E                     dE             d eps       ncg     rms          rms(c)
DAV:   1    -0.177695590908E+02   -0.40952E-03   -0.53048E-02  4430   0.193E+00    0.100E-01
RMM:   2    -0.177694948381E+02    0.64253E-04   -0.10309E-03  4325   0.306E-01    0.102E-01
RMM:   3    -0.177695534837E+02   -0.58646E-04   -0.53599E-05  4371   0.729E-02    0.671E-02
RMM:   4    -0.177697019195E+02   -0.14844E-03   -0.88469E-05  4318   0.131E-01    0.372E-02
RMM:   5    -0.177699340974E+02   -0.23218E-03   -0.40690E-04  4320   0.270E-01    0.449E-02
RMM:   6    -0.177700365780E+02   -0.10248E-03   -0.20753E-04  4322   0.188E-01    0.206E-02
RMM:   7    -0.177701259347E+02   -0.89357E-04   -0.57714E-04  4320   0.333E-01    0.966E-03
RMM:   8    -0.177701297274E+02   -0.37926E-05   -0.21907E-05  4025   0.364E-02    0.714E-03
RMM:   9    -0.177701317672E+02   -0.20398E-05   -0.17849E-05  4213   0.553E-02    0.194E-03
RMM:  10    -0.177701321621E+02   -0.39489E-06   -0.12131E-06  2790   0.127E-02
   7 F= -.17770132E+02 E0= -.17770162E+02  d E =-.197725E-01
 curvature:  -1.58 expect dE=-0.500E-02 dE for cont linesearch -0.252E-02
 ZBRENT: increasing intervall
 opt :   2.4492  next Energy=   -17.775550 (dE=-0.252E-01)
 bond charge predicted
       N       E                     dE             d eps       ncg     rms          rms(c)
DAV:   1    -0.177727999507E+02   -0.26682E-02   -0.21376E-01  4346   0.385E+00    0.197E-01
RMM:   2    -0.177724617452E+02    0.33821E-03   -0.40749E-03  4326   0.601E-01    0.200E-01
RMM:   3    -0.177726042678E+02   -0.14252E-03   -0.20047E-04  4373   0.132E-01    0.128E-01
RMM:   4    -0.177729962494E+02   -0.39198E-03   -0.28858E-04  4320   0.230E-01    0.565E-02
RMM:   5    -0.177734163654E+02   -0.42012E-03   -0.77941E-04  4320   0.358E-01    0.659E-02
RMM:   6    -0.177735535908E+02   -0.13723E-03   -0.26858E-04  4322   0.211E-01    0.273E-02
RMM:   7    -0.177736737912E+02   -0.12020E-03   -0.74292E-04  4320   0.378E-01    0.121E-02
RMM:   8    -0.177736783675E+02   -0.45764E-05   -0.63223E-05  4346   0.807E-02    0.418E-03
RMM:   9    -0.177736785549E+02   -0.18735E-06   -0.24414E-06  3108   0.828E-03
   8 F= -.17773679E+02 E0= -.17773673E+02  d E =-.233189E-01
 curvature:  -3.40 expect dE=-0.197E-01 dE for cont linesearch -0.445E-02
 ZBRENT: increasing intervall
 opt :   3.4299  next Energy=   -17.778920 (dE=-0.286E-01)
 bond charge predicted
       N       E                     dE             d eps       ncg     rms          rms(c)
DAV:   1    -0.177754394842E+02   -0.17611E-02   -0.84648E-01  4342   0.768E+00    0.413E-01
RMM:   2    -0.177744302818E+02    0.10092E-02   -0.16395E-02  4325   0.122E+00    0.420E-01
RMM:   3    -0.177754588276E+02   -0.10285E-02   -0.95000E-04  4362   0.329E-01    0.274E-01
RMM:   4    -0.177783613666E+02   -0.29025E-02   -0.19464E-03  4320   0.612E-01    0.165E-01
RMM:   5    -0.177831983176E+02   -0.48370E-02   -0.76502E-03  4320   0.118E+00    0.188E-01
RMM:   6    -0.177879898987E+02   -0.47916E-02   -0.10363E-02  4320   0.140E+00    0.136E-01
RMM:   7    -0.177959157876E+02   -0.79259E-02   -0.34850E-02  4320   0.255E+00    0.144E-01
RMM:   8    -0.177966757808E+02   -0.75999E-03   -0.16297E-03  4355   0.371E-01    0.139E-01
RMM:   9    -0.177805028104E+02    0.16173E-01   -0.10347E-01  4320   0.465E+00    0.173E-01
RMM:  10    -0.178644505141E+02   -0.83948E-01   -0.28505E+00  4320   0.229E+01    0.176E+00
RMM:  11    -0.178746593895E+02   -0.10209E-01   -0.40385E-02  4327   0.147E+00    0.171E+00
RMM:  12    -0.178026363945E+02    0.72023E-01   -0.18022E+00  4320   0.194E+01    0.257E-01
RMM:  13    -0.178706954343E+02   -0.68059E-01   -0.14671E+00  4320   0.169E+01    0.167E+00
RMM:  14    -0.178621690115E+02    0.85264E-02   -0.64927E-01  4320   0.116E+01    0.755E-01
RMM:  15    -0.178663451470E+02   -0.41761E-02   -0.34642E-03  4323   0.312E-01    0.756E-01
RMM:  16    -0.178692865287E+02   -0.29414E-02   -0.31763E-04  4320   0.241E-01    0.763E-01
RMM:  17    -0.178465788041E+02    0.22708E-01   -0.18107E-02  4320   0.189E+00    0.647E-01
RMM:  18    -0.179088520741E+02   -0.62273E-01   -0.25190E-01  4320   0.697E+00    0.911E-01
RMM:  19    -0.178657275215E+02    0.43125E-01   -0.26147E-01  4320   0.679E+00    0.175E+00
RMM:  20    -0.178747963680E+02   -0.90688E-02   -0.65533E-01  4320   0.115E+01    0.846E-01
RMM:  21    -0.178813986434E+02   -0.66023E-02   -0.36541E-03  4328   0.413E-01    0.891E-01
RMM:  22    -0.178963204229E+02   -0.14922E-01   -0.13143E-02  4320   0.161E+00    0.811E-01
RMM:  23    -0.178842730846E+02    0.12047E-01   -0.69920E-03  4320   0.120E+00    0.832E-01
RMM:  24    -0.178761269344E+02    0.81462E-02   -0.29798E-03  4320   0.737E-01    0.827E-01
RMM:  25    -0.178844713106E+02   -0.83444E-02   -0.22411E-03  4320   0.682E-01    0.830E-01
RMM:  26    -0.178857112854E+02   -0.12400E-02   -0.11240E-04  4310   0.131E-01    0.824E-01
RMM:  27    -0.178833324256E+02    0.23789E-02   -0.21374E-04  4319   0.210E-01    0.831E-01
RMM:  28    -0.178838957889E+02   -0.56336E-03   -0.12322E-05  3946   0.438E-02    0.820E-01
RMM:  29    -0.179026313529E+02   -0.18736E-01   -0.25680E-02  4320   0.223E+00    0.724E-01
RMM:  30    -0.179067851511E+02   -0.41538E-02   -0.62422E-03  4324   0.102E+00    0.644E-01
RMM:  31    -0.179075569074E+02   -0.77176E-03   -0.22073E-03  4320   0.453E-01    0.333E-01
RMM:  32    -0.179083843447E+02   -0.82744E-03   -0.26963E-02  4320   0.225E+00    0.254E-01
RMM:  33    -0.179081884368E+02    0.19591E-03   -0.56893E-04  4321   0.230E-01    0.244E-01
RMM:  34    -0.179081690414E+02    0.19395E-04   -0.32795E-05  4061   0.419E-02    0.241E-01
RMM:  35    -0.179078059888E+02    0.36305E-03   -0.39659E-02  4320   0.280E+00    0.390E-01
RMM:  36    -0.179028280648E+02    0.49779E-02   -0.76765E-03  4324   0.115E+00    0.500E-01
RMM:  37    -0.179012242560E+02    0.16038E-02   -0.67102E-04  4338   0.295E-01    0.525E-01
RMM:  38    -0.179007010212E+02    0.52323E-03   -0.83032E-05  4330   0.858E-02    0.516E-01
RMM:  39    -0.179060177343E+02   -0.53167E-02   -0.76265E-03  4320   0.117E+00    0.347E-01
RMM:  40    -0.179091003985E+02   -0.30827E-02   -0.96372E-03  4320   0.131E+00    0.166E-01
RMM:  41    -0.179077042083E+02    0.13962E-02   -0.14805E-03  4320   0.556E-01    0.197E-01
RMM:  42    -0.179081184633E+02   -0.41426E-03   -0.34685E-04  4320   0.229E-01    0.141E-01
RMM:  43    -0.179090558414E+02   -0.93738E-03   -0.19369E-03  4320   0.592E-01    0.596E-02
RMM:  44    -0.179092495981E+02   -0.19376E-03   -0.52623E-04  4320   0.292E-01    0.263E-02
RMM:  45    -0.179092849832E+02   -0.35385E-04   -0.11483E-04  4324   0.130E-01    0.157E-02
RMM:  46    -0.179092797009E+02    0.52823E-05   -0.19957E-04  4320   0.186E-01    0.196E-02
RMM:  47    -0.179092251934E+02    0.54508E-04   -0.12141E-04  4319   0.145E-01    0.340E-02
RMM:  48    -0.179092784863E+02   -0.53293E-04   -0.76573E-05  4318   0.124E-01    0.175E-02
RMM:  49    -0.179092890189E+02   -0.10533E-04   -0.21098E-05  4066   0.615E-02    0.929E-03
RMM:  50    -0.179092919243E+02   -0.29054E-05   -0.21590E-05  4027   0.628E-02    0.482E-03
RMM:  51    -0.179092915730E+02    0.35130E-06   -0.90142E-07  2407   0.108E-02
   9 F= -.17909292E+02 E0= -.17909172E+02  d E =-.158932E+00
 curvature:  -4.00 expect dE=-0.166E+01 dE for cont linesearch -0.701E+00
 ZBRENT: increasing intervall
 opt :   5.3912  next Energy=   -18.168084 (dE=-0.418E+00)
 bond charge predicted
       N       E                     dE             d eps       ncg     rms          rms(c)
DAV:   1    -0.179963131229E+02   -0.87021E-01   -0.36253E+00  4358   0.159E+01    0.965E-01
RMM:   2    -0.179846865587E+02    0.11627E-01   -0.64650E-02  4320   0.233E+00    0.924E-01
RMM:   3    -0.179831215598E+02    0.15650E-02   -0.45371E-03  4329   0.560E-01    0.548E-01
RMM:   4    -0.179828588235E+02    0.26274E-03   -0.47459E-03  4323   0.738E-01    0.886E-02
RMM:   5    -0.179829297718E+02   -0.70948E-04   -0.20586E-04  4332   0.139E-01    0.519E-02
RMM:   6    -0.179829869049E+02   -0.57133E-04   -0.99441E-05  4320   0.136E-01    0.160E-02
RMM:   7    -0.179829946395E+02   -0.77346E-05   -0.17263E-05  4298   0.547E-02    0.104E-02
RMM:   8    -0.179829991591E+02   -0.45196E-05   -0.26141E-05  4312   0.721E-02    0.534E-03
RMM:   9    -0.179829990376E+02    0.12152E-06   -0.70295E-07  2766   0.698E-03
  10 F= -.17982999E+02 E0= -.17982636E+02  d E =-.232639E+00
 curvature:  -1.48 expect dE=-0.471E+00 dE for cont linesearch -0.172E-01
 ZBRENT: extrapolating
 opt :   6.0737  next Energy=   -17.989073 (dE=-0.239E+00)
 bond charge predicted
       N       E                     dE             d eps       ncg     rms          rms(c)
DAV:   1    -0.179864945228E+02   -0.34954E-02   -0.43360E-01  4426   0.554E+00    0.347E-01
RMM:   2    -0.179850347867E+02    0.14597E-02   -0.77337E-03  4320   0.830E-01    0.315E-01
RMM:   3    -0.179848504879E+02    0.18430E-03   -0.64599E-04  4324   0.232E-01    0.189E-01
RMM:   4    -0.179848681849E+02   -0.17697E-04   -0.78980E-04  4322   0.318E-01    0.419E-02
RMM:   5    -0.179848877522E+02   -0.19567E-04   -0.40715E-05  4329   0.723E-02    0.223E-02
RMM:   6    -0.179848995458E+02   -0.11794E-04   -0.27093E-05  4315   0.702E-02    0.752E-03
RMM:   7    -0.179849005039E+02   -0.95813E-06   -0.50603E-06  3626   0.293E-02
  11 F= -.17984901E+02 E0= -.17984718E+02  d E =-.234541E+00
 curvature:  -0.52 expect dE=-0.178E+00 dE for cont linesearch -0.754E-05
 trial: gam=13.50291 g(F)=  0.349E-43 g(S)=  0.342E+00 ort = 0.627E-03 (trialstep = 0.982E-02)
 search vector abs. value=  0.531E+01
 bond charge predicted
       N       E                     dE             d eps       ncg     rms          rms(c)
DAV:   1    -0.179880984003E+02   -0.31989E-02   -0.18842E-02  4526   0.116E+00    0.142E-01
RMM:   2    -0.179880635808E+02    0.34819E-04   -0.21016E-04  4320   0.148E-01    0.983E-02
RMM:   3    -0.179880494385E+02    0.14142E-04   -0.71470E-05  4323   0.870E-02    0.173E-02
RMM:   4    -0.179880509069E+02   -0.14685E-05   -0.66000E-06  3979   0.257E-02    0.864E-03
RMM:   5    -0.179880520877E+02   -0.11808E-05   -0.16495E-06  2741   0.193E-02    0.252E-03
RMM:   6    -0.179880522339E+02   -0.14615E-06   -0.30000E-07  2449   0.552E-03
  12 F= -.17988052E+02 E0= -.17987896E+02  d E =-.315173E-02
 ZBRENT: can't locate minimum, use default step
 trial-energy change:   -0.003152  1 .order   -0.003163   -0.003437   -0.002889
 step:   0.0393(harm=  0.0616)  dis= 0.00000  next Energy=   -17.995687 (dE=-0.108E-01)
 bond charge predicted
       N       E                     dE             d eps       ncg     rms          rms(c)
DAV:   1    -0.179945442952E+02   -0.64922E-02   -0.16802E-01  4410   0.345E+00    0.412E-01
RMM:   2    -0.179942318066E+02    0.31249E-03   -0.18345E-03  4320   0.440E-01    0.285E-01
RMM:   3    -0.179941109717E+02    0.12083E-03   -0.67807E-04  4324   0.269E-01    0.486E-02
RMM:   4    -0.179941262193E+02   -0.15248E-04   -0.58110E-05  4323   0.753E-02    0.257E-02
RMM:   5    -0.179941372586E+02   -0.11039E-04   -0.15218E-05  4285   0.569E-02    0.676E-03
RMM:   6    -0.179941386124E+02   -0.13538E-05   -0.21345E-06  2999   0.180E-02    0.319E-03
RMM:   7    -0.179941397280E+02   -0.11157E-05   -0.29788E-06  3375   0.239E-02    0.133E-03
RMM:   8    -0.179941397075E+02    0.20532E-07   -0.16043E-07  2277   0.412E-03
  13 F= -.17994140E+02 E0= -.17994069E+02  d E =-.923920E-02
 curvature:  -0.38 expect dE=-0.116E+00 dE for cont linesearch -0.120E-02
 ZBRENT: increasing intervall
 opt :   0.0982  next Energy=   -17.992045 (dE=-0.714E-02)
 bond charge predicted
       N       E                     dE             d eps       ncg     rms          rms(c)
DAV:   1    -0.179929450134E+02    0.11947E-02   -0.66057E-01  4416   0.683E+00    0.794E-01
RMM:   2    -0.179916060737E+02    0.13389E-02   -0.68883E-03  4320   0.859E-01    0.539E-01
RMM:   3    -0.179910441819E+02    0.56189E-03   -0.28266E-03  4323   0.546E-01    0.802E-02
RMM:   4    -0.179910855194E+02   -0.41338E-04   -0.17734E-04  4325   0.122E-01    0.494E-02
RMM:   5    -0.179911165917E+02   -0.31072E-04   -0.44295E-05  4319   0.970E-02    0.137E-02
RMM:   6    -0.179911203767E+02   -0.37850E-05   -0.70508E-06  3977   0.323E-02    0.468E-03
RMM:   7    -0.179911227961E+02   -0.24193E-05   -0.61835E-06  3958   0.363E-02    0.104E-03
RMM:   8    -0.179911228096E+02   -0.13564E-07   -0.17924E-07  2500   0.367E-03
  14 F= -.17991123E+02 E0= -.17991278E+02  d E =-.622231E-02
 curvature:   0.66 expect dE= 0.197E+00 dE for cont linesearch  0.604E-02
 ZBRENT: bracketing found
 ZBRENT: interpolating
 opt :   0.0611  next Energy=   -17.995552 (dE=-0.107E-01)
 bond charge predicted
       N       E                     dE             d eps       ncg     rms          rms(c)
DAV:   1    -0.179961165907E+02   -0.49938E-02   -0.26112E-01  4404   0.433E+00    0.494E-01
RMM:   2    -0.179956128182E+02    0.50377E-03   -0.27490E-03  4320   0.544E-01    0.333E-01
RMM:   3    -0.179953989328E+02    0.21389E-03   -0.10048E-03  4324   0.325E-01    0.545E-02
RMM:   4    -0.179954162318E+02   -0.17299E-04   -0.75475E-05  4325   0.826E-02    0.310E-02
RMM:   5    -0.179954282817E+02   -0.12050E-04   -0.18117E-05  4297   0.624E-02    0.833E-03
RMM:   6    -0.179954298483E+02   -0.15666E-05   -0.28946E-06  3254   0.211E-02    0.330E-03
RMM:   7    -0.179954307220E+02   -0.87363E-06   -0.30699E-06  3410   0.250E-02
  15 F= -.17995431E+02 E0= -.17995459E+02  d E =-.105302E-01
 curvature:  -0.16 expect dE=-0.458E-01 dE for cont linesearch -0.807E-06
 trial: gam=-0.03487 g(F)=  0.803E-43 g(S)=  0.295E+00 ort = 0.525E-02 (trialstep = 0.201E-01)
 search vector abs. value=  0.301E+00
 bond charge predicted
       N       E                     dE             d eps       ncg     rms          rms(c)
DAV:   1    -0.180012706141E+02   -0.58408E-02   -0.33256E-03  4360   0.576E-01    0.146E-01
RMM:   2    -0.180012083278E+02    0.62286E-04   -0.11309E-04  4320   0.851E-02    0.488E-02
RMM:   3    -0.180012010808E+02    0.72470E-05   -0.13025E-05  4310   0.283E-02    0.264E-02
RMM:   4    -0.180011997166E+02    0.13642E-05   -0.76686E-06  4282   0.247E-02    0.476E-03
RMM:   5    -0.180011997834E+02   -0.66807E-07   -0.86546E-07  2574   0.137E-02
  16 F= -.18001200E+02 E0= -.18001225E+02  d E =-.576906E-02
 ZBRENT: can't locate minimum, use default step
 trial-energy change:   -0.005769  1 .order   -0.005776   -0.005916   -0.005635
 step:   0.0803(harm=  0.4229)  dis= 0.00000  next Energy=   -18.057733 (dE=-0.623E-01)
 bond charge predicted
       N       E                     dE             d eps       ncg     rms          rms(c)
DAV:   1    -0.180174274518E+02   -0.16228E-01   -0.29850E-02  4320   0.172E+00    0.431E-01
RMM:   2    -0.180168675186E+02    0.55993E-03   -0.10492E-03  4320   0.259E-01    0.142E-01
RMM:   3    -0.180168122108E+02    0.55308E-04   -0.11629E-04  4326   0.841E-02    0.782E-02
RMM:   4    -0.180168095291E+02    0.26818E-05   -0.69454E-05  4320   0.737E-02    0.140E-02
RMM:   5    -0.180168129576E+02   -0.34286E-05   -0.83763E-06  4277   0.401E-02    0.504E-03
RMM:   6    -0.180168135671E+02   -0.60946E-06   -0.22176E-06  3029   0.149E-02
  17 F= -.18016814E+02 E0= -.18016834E+02  d E =-.213828E-01
 curvature:  -0.06 expect dE=-0.117E-01 dE for cont linesearch -0.114E-01
 ZBRENT: increasing intervall
 opt :   0.2008  next Energy=   -18.040732 (dE=-0.453E-01)
 bond charge predicted
       N       E                     dE             d eps       ncg     rms          rms(c)
DAV:   1    -0.180430344247E+02   -0.26221E-01   -0.11829E-01  4324   0.342E+00    0.838E-01
RMM:   2    -0.180407989860E+02    0.22354E-02   -0.42882E-03  4320   0.521E-01    0.276E-01
RMM:   3    -0.180405842807E+02    0.21471E-03   -0.46498E-04  4326   0.167E-01    0.154E-01
RMM:   4    -0.180405814287E+02    0.28520E-05   -0.28475E-04  4320   0.148E-01    0.274E-02
RMM:   5    -0.180405978333E+02   -0.16405E-04   -0.32598E-05  4325   0.780E-02    0.102E-02
RMM:   6    -0.180405995643E+02   -0.17310E-05   -0.10663E-05  4115   0.318E-02    0.880E-03
RMM:   7    -0.180405999013E+02   -0.33695E-06   -0.25939E-06  3307   0.167E-02
  18 F= -.18040600E+02 E0= -.18040594E+02  d E =-.451692E-01
 curvature:  -0.13 expect dE=-0.108E-01 dE for cont linesearch -0.105E-01
 ZBRENT: increasing intervall
 opt :   0.4417  next Energy=   -18.059312 (dE=-0.639E-01)
 bond charge predicted
       N       E                     dE             d eps       ncg     rms          rms(c)
DAV:   1    -0.180700592933E+02   -0.29460E-01   -0.46959E-01  4320   0.676E+00    0.160E+00
RMM:   2    -0.180608652761E+02    0.91940E-02   -0.18694E-02  4320   0.108E+00    0.516E-01
RMM:   3    -0.180600094876E+02    0.85579E-03   -0.18873E-03  4327   0.333E-01    0.300E-01
RMM:   4    -0.180600264508E+02   -0.16963E-04   -0.12377E-03  4320   0.309E-01    0.537E-02
RMM:   5    -0.180601114045E+02   -0.84954E-04   -0.14589E-04  4328   0.164E-01    0.235E-02
RMM:   6    -0.180601206894E+02   -0.92849E-05   -0.66409E-05  4320   0.795E-02    0.196E-02
RMM:   7    -0.180601203013E+02    0.38801E-06   -0.14331E-05  4272   0.386E-02    0.818E-03
RMM:   8    -0.180601209246E+02   -0.62328E-06   -0.25888E-06  3133   0.196E-02
  19 F= -.18060121E+02 E0= -.18060008E+02  d E =-.646902E-01
 curvature:  -0.22 expect dE=-0.448E-04 dE for cont linesearch -0.420E-04
 ZBRENT: extrapolating
 opt :   0.4537  next Energy=   -18.060166 (dE=-0.647E-01)
 bond charge predicted
       N       E                     dE             d eps       ncg     rms          rms(c)
DAV:   1    -0.180601921976E+02   -0.71896E-04   -0.11688E-03  4578   0.336E-01    0.777E-02
RMM:   2    -0.180601687491E+02    0.23448E-04   -0.44630E-05  4311   0.536E-02    0.245E-02
RMM:   3    -0.180601656892E+02    0.30599E-05   -0.44718E-06  3842   0.160E-02    0.136E-02
RMM:   4    -0.180601647257E+02    0.96351E-06   -0.27281E-06  3133   0.145E-02    0.258E-03
RMM:   5    -0.180601646556E+02    0.70061E-07   -0.33103E-07  2413   0.724E-03
  20 F= -.18060165E+02 E0= -.18060049E+02  d E =-.647339E-01
 curvature:  -0.24 expect dE=-0.573E-06 dE for cont linesearch -0.279E-07
 trial: gam=-0.00102 g(F)=  0.823E-43 g(S)=  0.239E-05 ort = 0.187E-03 (trialstep = 0.107E+00)
 search vector abs. value=  0.232E-05
 reached required accuracy - stopping structural energy minimisation
 writing wavefunctions
 augmentation electrons   1.1585414695957856     
 soft         electrons   10.866379030876544     
 augmentation electrons   1.1585414695957856     
 soft         electrons   10.866379030876544     
 augmentation electrons   1.1585414695957856     
 augmentation electrons   1.1585414695957856     
 soft         electrons   10.866379030876544     
 soft         electrons   10.866379030876544     
 total        electrons   12.024920500472330     
 total        electrons   12.024920500472330     
 total        electrons   12.024920500472330     
 total        electrons   12.024920500472330     
