   24   24   85    1
  0.2443449E+02  0.6078000E-09  0.6078000E-09  0.1833000E-08  0.5000000E-15
   1.0000000000000000E-004
  CAR 
 Name                                    
     88     41     60

  0.3742002E-15  0.3742002E-15  0.1262379E-14  0.1234568E-01
    1      -13.763923   1.000000
    2      -12.262766   1.000000
    3      -10.967748   1.000000
    4      -10.694630   1.000000
    5      -10.533934   1.000000
    6      -10.136629   1.000000
    7       -9.883217   1.000000
    8       -9.777056   1.000000
    9       -9.633188   1.000000
   10       -9.157264   1.000000
   11       -9.070756   1.000000
   12       -8.199795   1.000000
   13       -7.980289   1.000000
   14       -7.709409   1.000000
   15       -7.307432   1.000000
   16       -6.144312   1.000000
   17       -5.757434   1.000000
   18       -5.530398   1.000000
   19       -5.294999   1.000000
   20       -4.996885   1.000000
   21       -4.761833   1.000000
   22       -4.360883   1.000000
   23       -4.354212   1.000000
   24       -4.223590   1.000000
   25       -4.143854   1.000000
   26       -4.075856   1.000000
   27       -3.830252   1.000000
   28       -3.655844   1.000000
   29       -3.518212   1.000000
   30       -3.261192   1.000000
   31       -3.230733   1.000000
   32       -3.180406   1.000000
   33       -3.092913   1.000000
   34       -2.740601   1.000000
   35       -1.992768   1.000000
   36       -1.897086   1.000000
   37       -1.721582   1.000000
   38       -1.570431   1.000000
   39       -1.564194   1.000000
   40       -1.516573   1.000000
   41       -1.516357   1.000000
   42       -0.717381   1.029984
   43       -0.651583   1.033390
   44       -0.143954  -0.030968
   45       -0.070514  -0.014878
   46        0.267422  -0.000005
   47        0.380729  -0.000000
   48        0.456574  -0.000000
   49        0.642008  -0.000000
   50        0.665682  -0.000000
   51        0.756196  -0.000000
   52        0.788963  -0.000000
   53        0.867091  -0.000000
   54        0.959546  -0.000000
   55        0.976427  -0.000000
   56        1.123098  -0.000000
   57        1.129909  -0.000000
   58        1.275619  -0.000000
   59        1.299245  -0.000000
   60        1.497703  -0.000000

  0.1111111E+00  0.3756941E-15  0.1262379E-14  0.2469136E-01
    1      -13.710487   1.000000
    2      -12.231135   1.000000
    3      -11.101930   1.000000
    4      -10.782280   1.000000
    5      -10.714037   1.000000
    6      -10.260038   1.000000
    7       -9.821083   1.000000
    8       -9.721919   1.000000
    9       -9.429715   1.000000
   10       -9.073739   1.000000
   11       -9.002865   1.000000
   12       -8.210954   1.000000
   13       -7.779009   1.000000
   14       -7.549131   1.000000
   15       -7.242166   1.000000
   16       -6.172175   1.000000
   17       -5.847878   1.000000
   18       -5.545642   1.000000
   19       -5.329717   1.000000
   20       -4.964729   1.000000
   21       -4.754783   1.000000
   22       -4.486095   1.000000
   23       -4.379869   1.000000
   24       -4.292120   1.000000
   25       -4.194241   1.000000
   26       -4.057010   1.000000
   27       -3.828323   1.000000
   28       -3.718464   1.000000
   29       -3.564807   1.000000
   30       -3.456196   1.000000
   31       -3.220724   1.000000
   32       -3.068241   1.000000
   33       -2.930207   1.000000
   34       -2.655522   1.000000
   35       -2.379718   1.000000
   36       -2.141149   1.000000
   37       -1.825754   1.000000
   38       -1.697940   1.000000
   39       -1.621320   1.000000
   40       -1.219046   1.000000
   41       -1.089695   1.000015
   42       -0.776977   1.016680
   43       -0.704363   1.032452
   44       -0.265124   0.006107
   45       -0.173258  -0.035098
   46        0.118095  -0.000387
   47        0.261300  -0.000006
   48        0.434633  -0.000000
   49        0.600137  -0.000000
   50        0.662429  -0.000000
   51        0.735971  -0.000000
   52        0.770428  -0.000000
   53        0.909331  -0.000000
   54        0.983188  -0.000000
   55        1.007998  -0.000000
   56        1.093698  -0.000000
   57        1.141180  -0.000000
   58        1.214545  -0.000000
   59        1.428761  -0.000000
   60        1.458604  -0.000000

  0.2222222E+00  0.3431732E-15  0.1262379E-14  0.2469136E-01
    1      -13.552393   1.000000
    2      -12.141434   1.000000
    3      -11.525772   1.000000
    4      -10.947570   1.000000
    5      -10.848574   1.000000
    6      -10.508554   1.000000
    7       -9.893921   1.000000
    8       -9.638746   1.000000
    9       -9.087708   1.000000
   10       -8.928712   1.000000
   11       -8.573228   1.000000
   12       -8.059841   1.000000
   13       -7.534415   1.000000
   14       -7.127611   1.000000
   15       -6.981122   1.000000
   16       -6.301715   1.000000
   17       -6.081095   1.000000
   18       -5.598623   1.000000
   19       -5.317119   1.000000
   20       -4.949657   1.000000
   21       -4.868458   1.000000
   22       -4.696332   1.000000
   23       -4.627424   1.000000
   24       -4.440334   1.000000
   25       -4.352193   1.000000
   26       -4.030310   1.000000
   27       -3.921858   1.000000
   28       -3.747024   1.000000
   29       -3.628692   1.000000
   30       -3.498624   1.000000
   31       -3.170504   1.000000
   32       -3.030762   1.000000
   33       -2.939632   1.000000
   34       -2.647574   1.000000
   35       -2.512022   1.000000
   36       -2.427258   1.000000
   37       -1.860230   1.000000
   38       -1.756583   1.000000
   39       -1.727061   1.000000
   40       -1.120750   1.000006
   41       -0.956379   1.000603
   42       -0.876217   1.003415
   43       -0.771018   1.017940
   44       -0.462563   0.643000
   45       -0.173483  -0.035113
   46       -0.120524  -0.025910
   47        0.022582  -0.003236
   48        0.222924  -0.000021
   49        0.491209  -0.000000
   50        0.570696  -0.000000
   51        0.715955  -0.000000
   52        0.757541  -0.000000
   53        0.830252  -0.000000
   54        0.968375  -0.000000
   55        1.033154  -0.000000
   56        1.089106  -0.000000
   57        1.130911  -0.000000
   58        1.230720  -0.000000
   59        1.535844  -0.000000
   60        1.700616  -0.000000

  0.3333333E+00  0.3568756E-15  0.1262379E-14  0.2469136E-01
    1      -13.296424   1.000000
    2      -12.088040   1.000000
    3      -11.944803   1.000000
    4      -11.051934   1.000000
    5      -10.955091   1.000000
    6      -10.812618   1.000000
    7       -9.943729   1.000000
    8       -9.612225   1.000000
    9       -8.817462   1.000000
   10       -8.688366   1.000000
   11       -8.080194   1.000000
   12       -7.673373   1.000000
   13       -7.245844   1.000000
   14       -6.832752   1.000000
   15       -6.587185   1.000000
   16       -6.472083   1.000000
   17       -6.286128   1.000000
   18       -5.636082   1.000000
   19       -5.414210   1.000000
   20       -5.211541   1.000000
   21       -5.087255   1.000000
   22       -5.048588   1.000000
   23       -4.718124   1.000000
   24       -4.545505   1.000000
   25       -4.530487   1.000000
   26       -4.196674   1.000000
   27       -3.949520   1.000000
   28       -3.719191   1.000000
   29       -3.633385   1.000000
   30       -3.499052   1.000000
   31       -3.410482   1.000000
   32       -3.077391   1.000000
   33       -2.828483   1.000000
   34       -2.686426   1.000000
   35       -2.396786   1.000000
   36       -2.250274   1.000000
   37       -1.895149   1.000000
   38       -1.822532   1.000000
   39       -1.789007   1.000000
   40       -1.452269   1.000000
   41       -1.304873   1.000000
   42       -0.914804   1.001554
   43       -0.820428   1.009047
   44       -0.428337   0.500527
   45       -0.324128   0.118893
   46       -0.179357  -0.035401
   47       -0.061420  -0.013160
   48        0.024769  -0.003101
   49        0.269799  -0.000005
   50        0.306848  -0.000001
   51        0.679898  -0.000000
   52        0.767518  -0.000000
   53        0.781296  -0.000000
   54        0.907266  -0.000000
   55        0.997740  -0.000000
   56        1.194454  -0.000000
   57        1.213682  -0.000000
   58        1.313486  -0.000000
   59        1.634043  -0.000000
   60        1.679720  -0.000000

  0.4444444E+00  0.3276888E-15  0.1262379E-14  0.2469136E-01
    1      -12.957402   1.000000
    2      -12.517807   1.000000
    3      -11.854684   1.000000
    4      -11.106336   1.000000
    5      -11.071460   1.000000
    6      -10.985914   1.000000
    7       -9.966357   1.000000
    8       -9.611640   1.000000
    9       -8.642626   1.000000
   10       -8.486747   1.000000
   11       -7.817780   1.000000
   12       -7.115909   1.000000
   13       -6.882382   1.000000
   14       -6.813294   1.000000
   15       -6.726585   1.000000
   16       -6.478653   1.000000
   17       -6.183080   1.000000
   18       -5.984537   1.000000
   19       -5.552304   1.000000
   20       -5.307896   1.000000
   21       -5.243618   1.000000
   22       -4.980077   1.000000
   23       -4.864711   1.000000
   24       -4.764510   1.000000
   25       -4.652018   1.000000
   26       -4.351252   1.000000
   27       -4.090279   1.000000
   28       -3.848249   1.000000
   29       -3.632514   1.000000
   30       -3.433666   1.000000
   31       -3.276705   1.000000
   32       -3.040279   1.000000
   33       -2.799491   1.000000
   34       -2.643069   1.000000
   35       -2.277627   1.000000
   36       -2.117596   1.000000
   37       -1.960725   1.000000
   38       -1.907938   1.000000
   39       -1.755485   1.000000
   40       -1.631376   1.000000
   41       -1.539906   1.000000
   42       -1.205199   1.000000
   43       -0.809182   1.010739
   44       -0.404463   0.400291
   45       -0.369925   0.264595
   46       -0.242753  -0.015845
   47       -0.215907  -0.030390
   48        0.038147  -0.002375
   49        0.083919  -0.000879
   50        0.148865  -0.000175
   51        0.632750  -0.000000
   52        0.725284  -0.000000
   53        0.768133  -0.000000
   54        0.907719  -0.000000
   55        1.015841  -0.000000
   56        1.236892  -0.000000
   57        1.292533  -0.000000
   58        1.389886  -0.000000
   59        1.503803  -0.000000
   60        1.740951  -0.000000

  0.3742002E-15  0.1111111E+00  0.1262379E-14  0.2469136E-01
    1      -13.710487   1.000000
    2      -12.231130   1.000000
    3      -11.101914   1.000000
    4      -10.781994   1.000000
    5      -10.714472   1.000000
    6      -10.260274   1.000000
    7       -9.820302   1.000000
    8       -9.722100   1.000000
    9       -9.429716   1.000000
   10       -9.073899   1.000000
   11       -9.002859   1.000000
   12       -8.211062   1.000000
   13       -7.779110   1.000000
   14       -7.548968   1.000000
   15       -7.242184   1.000000
   16       -6.172196   1.000000
   17       -5.847949   1.000000
   18       -5.545409   1.000000
   19       -5.329988   1.000000
   20       -4.964708   1.000000
   21       -4.754704   1.000000
   22       -4.486265   1.000000
   23       -4.379299   1.000000
   24       -4.292098   1.000000
   25       -4.194982   1.000000
   26       -4.056991   1.000000
   27       -3.828750   1.000000
   28       -3.717865   1.000000
   29       -3.564685   1.000000
   30       -3.455737   1.000000
   31       -3.221005   1.000000
   32       -3.068267   1.000000
   33       -2.930389   1.000000
   34       -2.655451   1.000000
   35       -2.379588   1.000000
   36       -2.141526   1.000000
   37       -1.825629   1.000000
   38       -1.698001   1.000000
   39       -1.621250   1.000000
   40       -1.218636   1.000000
   41       -1.089924   1.000015
   42       -0.776994   1.016677
   43       -0.704422   1.032442
   44       -0.265248   0.006257
   45       -0.173070  -0.035085
   46        0.117981  -0.000388
   47        0.261643  -0.000006
   48        0.434016  -0.000000
   49        0.599961  -0.000000
   50        0.662811  -0.000000
   51        0.736351  -0.000000
   52        0.770225  -0.000000
   53        0.909255  -0.000000
   54        0.983110  -0.000000
   55        1.008015  -0.000000
   56        1.093510  -0.000000
   57        1.140954  -0.000000
   58        1.214836  -0.000000
   59        1.428804  -0.000000
   60        1.458691  -0.000000

  0.1111111E+00  0.1111111E+00  0.1262379E-14  0.2469136E-01
    1      -13.604683   1.000000
    2      -12.168767   1.000000
    3      -11.297879   1.000000
    4      -11.164656   1.000000
    5      -10.621010   1.000000
    6      -10.420413   1.000000
    7       -9.980302   1.000000
    8       -9.660049   1.000000
    9       -8.978115   1.000000
   10       -8.962045   1.000000
   11       -8.777250   1.000000
   12       -8.330039   1.000000
   13       -7.399448   1.000000
   14       -7.274371   1.000000
   15       -7.105255   1.000000
   16       -6.301470   1.000000
   17       -6.034010   1.000000
   18       -5.489212   1.000000
   19       -5.337438   1.000000
   20       -4.977658   1.000000
   21       -4.766331   1.000000
   22       -4.683592   1.000000
   23       -4.477296   1.000000
   24       -4.363942   1.000000
   25       -4.207309   1.000000
   26       -4.167467   1.000000
   27       -3.910688   1.000000
   28       -3.811008   1.000000
   29       -3.535160   1.000000
   30       -3.483915   1.000000
   31       -3.123797   1.000000
   32       -2.979100   1.000000
   33       -2.926226   1.000000
   34       -2.733138   1.000000
   35       -2.588473   1.000000
   36       -2.433281   1.000000
   37       -1.801063   1.000000
   38       -1.730962   1.000000
   39       -1.659124   1.000000
   40       -1.193123   1.000000
   41       -0.979967   1.000337
   42       -0.857455   1.004846
   43       -0.695555   1.033807
   44       -0.448434   0.585083
   45       -0.202489  -0.033841
   46       -0.081370  -0.017082
   47        0.089948  -0.000764
   48        0.284570  -0.000003
   49        0.573129  -0.000000
   50        0.612178  -0.000000
   51        0.757950  -0.000000
   52        0.806827  -0.000000
   53        0.869409  -0.000000
   54        0.945958  -0.000000
   55        1.003369  -0.000000
   56        1.044939  -0.000000
   57        1.110248  -0.000000
   58        1.113425  -0.000000
   59        1.580398  -0.000000
   60        1.653973  -0.000000

  0.2222222E+00  0.1111111E+00  0.1262379E-14  0.2469136E-01
    1      -13.397691   1.000000
    2      -12.061020   1.000000
    3      -11.736747   1.000000
    4      -11.390496   1.000000
    5      -10.681700   1.000000
    6      -10.568806   1.000000
    7      -10.142611   1.000000
    8       -9.502335   1.000000
    9       -8.942776   1.000000
   10       -8.540023   1.000000
   11       -8.398430   1.000000
   12       -8.064630   1.000000
   13       -7.131971   1.000000
   14       -6.894006   1.000000
   15       -6.669992   1.000000
   16       -6.592864   1.000000
   17       -6.159246   1.000000
   18       -5.508209   1.000000
   19       -5.349031   1.000000
   20       -5.169956   1.000000
   21       -5.145344   1.000000
   22       -4.876502   1.000000
   23       -4.658864   1.000000
   24       -4.434553   1.000000
   25       -4.381314   1.000000
   26       -4.189811   1.000000
   27       -4.003541   1.000000
   28       -3.895242   1.000000
   29       -3.440105   1.000000
   30       -3.415964   1.000000
   31       -3.326207   1.000000
   32       -3.055983   1.000000
   33       -2.931715   1.000000
   34       -2.712691   1.000000
   35       -2.605078   1.000000
   36       -2.319141   1.000000
   37       -1.845886   1.000000
   38       -1.793749   1.000000
   39       -1.674457   1.000000
   40       -1.411802   1.000000
   41       -1.254077   1.000000
   42       -0.937372   1.000941
   43       -0.639928   1.030187
   44       -0.478775   0.706555
   45       -0.301241   0.064957
   46       -0.192677  -0.035094
   47       -0.120699  -0.025950
   48        0.131627  -0.000275
   49        0.391396  -0.000000
   50        0.502992  -0.000000
   51        0.656706  -0.000000
   52        0.749608  -0.000000
   53        0.800871  -0.000000
   54        0.841672  -0.000000
   55        0.997606  -0.000000
   56        1.076885  -0.000000
   57        1.193402  -0.000000
   58        1.209180  -0.000000
   59        1.664565  -0.000000
   60        1.779737  -0.000000

  0.3333333E+00  0.1111111E+00  0.1262379E-14  0.2469136E-01
    1      -13.099100   1.000000
    2      -12.258726   1.000000
    3      -11.893871   1.000000
    4      -11.493584   1.000000
    5      -10.948791   1.000000
    6      -10.578016   1.000000
    7      -10.224238   1.000000
    8       -9.315375   1.000000
    9       -8.995148   1.000000
   10       -8.192608   1.000000
   11       -8.115445   1.000000
   12       -7.414002   1.000000
   13       -7.042421   1.000000
   14       -6.800910   1.000000
   15       -6.536074   1.000000
   16       -6.352488   1.000000
   17       -6.114924   1.000000
   18       -5.860724   1.000000
   19       -5.526926   1.000000
   20       -5.371218   1.000000
   21       -5.282145   1.000000
   22       -5.068783   1.000000
   23       -4.828345   1.000000
   24       -4.635576   1.000000
   25       -4.516467   1.000000
   26       -4.380783   1.000000
   27       -4.086186   1.000000
   28       -3.853127   1.000000
   29       -3.713935   1.000000
   30       -3.355417   1.000000
   31       -3.209786   1.000000
   32       -3.072213   1.000000
   33       -2.859149   1.000000
   34       -2.662633   1.000000
   35       -2.385706   1.000000
   36       -2.150473   1.000000
   37       -1.922175   1.000000
   38       -1.769163   1.000000
   39       -1.733819   1.000000
   40       -1.636463   1.000000
   41       -1.566299   1.000000
   42       -1.031235   1.000086
   43       -0.784555   1.015144
   44       -0.469924   0.672312
   45       -0.401328   0.387374
   46       -0.283198   0.031678
   47       -0.186954  -0.035404
   48        0.095615  -0.000669
   49        0.130986  -0.000279
   50        0.308089  -0.000001
   51        0.590617  -0.000000
   52        0.677880  -0.000000
   53        0.748676  -0.000000
   54        0.817768  -0.000000
   55        1.049721  -0.000000
   56        1.166143  -0.000000
   57        1.260827  -0.000000
   58        1.312681  -0.000000
   59        1.500905  -0.000000
   60        1.809449  -0.000000

  0.4444444E+00  0.1111111E+00  0.1262379E-14  0.2469136E-01
    1      -12.776744   1.000000
    2      -12.644254   1.000000
    3      -11.822920   1.000000
    4      -11.533252   1.000000
    5      -11.069651   1.000000
    6      -10.584124   1.000000
    7      -10.241690   1.000000
    8       -9.292784   1.000000
    9       -8.979202   1.000000
   10       -8.064910   1.000000
   11       -7.893566   1.000000
   12       -7.167527   1.000000
   13       -6.936926   1.000000
   14       -6.612420   1.000000
   15       -6.525751   1.000000
   16       -6.477399   1.000000
   17       -6.271475   1.000000
   18       -5.958228   1.000000
   19       -5.624542   1.000000
   20       -5.310330   1.000000
   21       -5.156406   1.000000
   22       -5.049514   1.000000
   23       -4.995344   1.000000
   24       -4.895977   1.000000
   25       -4.762768   1.000000
   26       -4.404477   1.000000
   27       -4.149331   1.000000
   28       -3.862865   1.000000
   29       -3.687850   1.000000
   30       -3.437511   1.000000
   31       -3.204113   1.000000
   32       -3.003755   1.000000
   33       -2.771365   1.000000
   34       -2.580068   1.000000
   35       -2.322233   1.000000
   36       -1.977071   1.000000
   37       -1.938742   1.000000
   38       -1.913901   1.000000
   39       -1.752366   1.000000
   40       -1.665450   1.000000
   41       -1.456118   1.000000
   42       -1.275195   1.000000
   43       -0.870463   1.003811
   44       -0.466116   0.657233
   45       -0.392802   0.352741
   46       -0.269421   0.011515
   47       -0.168231  -0.034673
   48       -0.120152  -0.025824
   49        0.114976  -0.000418
   50        0.226755  -0.000019
   51        0.560112  -0.000000
   52        0.650743  -0.000000
   53        0.734988  -0.000000
   54        0.828923  -0.000000
   55        1.079013  -0.000000
   56        1.200750  -0.000000
   57        1.279223  -0.000000
   58        1.356777  -0.000000
   59        1.466540  -0.000000
   60        1.740978  -0.000000

 -0.4444444E+00  0.1111111E+00  0.1262379E-14  0.2469136E-01
    1      -13.098014   1.000000
    2      -12.265639   1.000000
    3      -11.895162   1.000000
    4      -11.503496   1.000000
    5      -10.939056   1.000000
    6      -10.569058   1.000000
    7      -10.199090   1.000000
    8       -9.418149   1.000000
    9       -8.981312   1.000000
   10       -8.202348   1.000000
   11       -7.984288   1.000000
   12       -7.318130   1.000000
   13       -7.130523   1.000000
   14       -6.895655   1.000000
   15       -6.548069   1.000000
   16       -6.361068   1.000000
   17       -6.076303   1.000000
   18       -5.787395   1.000000
   19       -5.689939   1.000000
   20       -5.276305   1.000000
   21       -5.236745   1.000000
   22       -5.022513   1.000000
   23       -4.985410   1.000000
   24       -4.672244   1.000000
   25       -4.635395   1.000000
   26       -4.286139   1.000000
   27       -4.057436   1.000000
   28       -3.857620   1.000000
   29       -3.673791   1.000000
   30       -3.562524   1.000000
   31       -3.333165   1.000000
   32       -2.969531   1.000000
   33       -2.753426   1.000000
   34       -2.645005   1.000000
   35       -2.358896   1.000000
   36       -2.006753   1.000000
   37       -1.875345   1.000000
   38       -1.816174   1.000000
   39       -1.774560   1.000000
   40       -1.520998   1.000000
   41       -1.428425   1.000000
   42       -1.082418   1.000019
   43       -0.844929   1.006046
   44       -0.476032   0.696073
   45       -0.357781   0.221479
   46       -0.244976  -0.014100
   47       -0.132932  -0.028690
   48       -0.023521  -0.007406
   49        0.129879  -0.000287
   50        0.315646  -0.000001
   51        0.552895  -0.000000
   52        0.672751  -0.000000
   53        0.774583  -0.000000
   54        0.855448  -0.000000
   55        1.054009  -0.000000
   56        1.157346  -0.000000
   57        1.264462  -0.000000
   58        1.325918  -0.000000
   59        1.579082  -0.000000
   60        1.813561  -0.000000

 -0.3333333E+00  0.1111111E+00  0.1262379E-14  0.2469136E-01
    1      -13.397499   1.000000
    2      -12.067265   1.000000
    3      -11.750713   1.000000
    4      -11.391571   1.000000
    5      -10.692764   1.000000
    6      -10.537865   1.000000
    7      -10.081549   1.000000
    8       -9.567048   1.000000
    9       -9.131532   1.000000
   10       -8.492052   1.000000
   11       -8.277697   1.000000
   12       -7.808726   1.000000
   13       -7.438127   1.000000
   14       -6.857838   1.000000
   15       -6.765648   1.000000
   16       -6.401142   1.000000
   17       -6.091309   1.000000
   18       -5.731269   1.000000
   19       -5.439555   1.000000
   20       -5.129179   1.000000
   21       -4.977825   1.000000
   22       -4.870471   1.000000
   23       -4.764998   1.000000
   24       -4.602791   1.000000
   25       -4.449792   1.000000
   26       -4.169911   1.000000
   27       -3.956078   1.000000
   28       -3.742453   1.000000
   29       -3.650671   1.000000
   30       -3.491845   1.000000
   31       -3.345608   1.000000
   32       -3.111133   1.000000
   33       -2.775363   1.000000
   34       -2.651773   1.000000
   35       -2.481732   1.000000
   36       -2.224112   1.000000
   37       -1.922650   1.000000
   38       -1.754555   1.000000
   39       -1.659535   1.000000
   40       -1.291095   1.000000
   41       -1.090382   1.000015
   42       -0.922093   1.001326
   43       -0.729350   1.027397
   44       -0.447854   0.582669
   45       -0.259619  -0.000237
   46       -0.212505  -0.031475
   47       -0.090574  -0.019065
   48        0.147743  -0.000180
   49        0.280855  -0.000003
   50        0.526659  -0.000000
   51        0.580199  -0.000000
   52        0.743706  -0.000000
   53        0.828595  -0.000000
   54        0.869839  -0.000000
   55        1.012146  -0.000000
   56        1.132776  -0.000000
   57        1.188328  -0.000000
   58        1.285164  -0.000000
   59        1.675697  -0.000000
   60        1.762026  -0.000000

 -0.2222222E+00  0.1111111E+00  0.1262379E-14  0.2469136E-01
    1      -13.604824   1.000000
    2      -12.173012   1.000000
    3      -11.326697   1.000000
    4      -11.164982   1.000000
    5      -10.602238   1.000000
    6      -10.395812   1.000000
    7       -9.884152   1.000000
    8       -9.696113   1.000000
    9       -9.327079   1.000000
   10       -8.890485   1.000000
   11       -8.709821   1.000000
   12       -7.893529   1.000000
   13       -7.732228   1.000000
   14       -7.319632   1.000000
   15       -7.071008   1.000000
   16       -6.220915   1.000000
   17       -5.815102   1.000000
   18       -5.689543   1.000000
   19       -5.513757   1.000000
   20       -4.945224   1.000000
   21       -4.761590   1.000000
   22       -4.723057   1.000000
   23       -4.586268   1.000000
   24       -4.395521   1.000000
   25       -4.277869   1.000000
   26       -4.041948   1.000000
   27       -3.898399   1.000000
   28       -3.682114   1.000000
   29       -3.642328   1.000000
   30       -3.567518   1.000000
   31       -3.268589   1.000000
   32       -2.913181   1.000000
   33       -2.732410   1.000000
   34       -2.658766   1.000000
   35       -2.527625   1.000000
   36       -2.458636   1.000000
   37       -1.902612   1.000000
   38       -1.673108   1.000000
   39       -1.587803   1.000000
   40       -1.103258   1.000010
   41       -0.953621   1.000644
   42       -0.827032   1.008148
   43       -0.733488   1.026461
   44       -0.365041   0.246910
   45       -0.219974  -0.028891
   46       -0.025011  -0.007589
   47        0.052714  -0.001754
   48        0.304821  -0.000001
   49        0.460969  -0.000000
   50        0.630187  -0.000000
   51        0.693320  -0.000000
   52        0.824148  -0.000000
   53        0.888531  -0.000000
   54        0.914348  -0.000000
   55        1.006788  -0.000000
   56        1.102143  -0.000000
   57        1.138434  -0.000000
   58        1.276283  -0.000000
   59        1.528870  -0.000000
   60        1.621515  -0.000000

 -0.1111111E+00  0.1111111E+00  0.1262379E-14  0.2469136E-01
    1      -13.710581   1.000000
    2      -12.232670   1.000000
    3      -11.096385   1.000000
    4      -10.894297   1.000000
    5      -10.589986   1.000000
    6      -10.240977   1.000000
    7       -9.825596   1.000000
    8       -9.724825   1.000000
    9       -9.478343   1.000000
   10       -9.154014   1.000000
   11       -8.960025   1.000000
   12       -7.970338   1.000000
   13       -7.870186   1.000000
   14       -7.675626   1.000000
   15       -7.220471   1.000000
   16       -6.151833   1.000000
   17       -5.731006   1.000000
   18       -5.576191   1.000000
   19       -5.459288   1.000000
   20       -4.985599   1.000000
   21       -4.745429   1.000000
   22       -4.524543   1.000000
   23       -4.460702   1.000000
   24       -4.256317   1.000000
   25       -4.203541   1.000000
   26       -3.984850   1.000000
   27       -3.859892   1.000000
   28       -3.655191   1.000000
   29       -3.550329   1.000000
   30       -3.516831   1.000000
   31       -3.291604   1.000000
   32       -2.989572   1.000000
   33       -2.883589   1.000000
   34       -2.666124   1.000000
   35       -2.288908   1.000000
   36       -2.259140   1.000000
   37       -1.844745   1.000000
   38       -1.600504   1.000000
   39       -1.557184   1.000000
   40       -1.242152   1.000000
   41       -1.158820   1.000002
   42       -0.752695   1.022032
   43       -0.702159   1.032819
   44       -0.227537  -0.025474
   45       -0.162553  -0.034028
   46        0.186289  -0.000062
   47        0.240248  -0.000012
   48        0.369627  -0.000000
   49        0.574981  -0.000000
   50        0.665068  -0.000000
   51        0.703219  -0.000000
   52        0.848663  -0.000000
   53        0.935216  -0.000000
   54        0.937645  -0.000000
   55        0.980515  -0.000000
   56        1.115238  -0.000000
   57        1.142417  -0.000000
   58        1.281583  -0.000000
   59        1.409853  -0.000000
   60        1.494820  -0.000000

  0.3742002E-15  0.2222222E+00  0.1262379E-14  0.2469136E-01
    1      -13.552391   1.000000
    2      -12.141407   1.000000
    3      -11.525798   1.000000
    4      -10.947457   1.000000
    5      -10.848893   1.000000
    6      -10.508764   1.000000
    7       -9.893495   1.000000
    8       -9.638592   1.000000
    9       -9.087270   1.000000
   10       -8.928697   1.000000
   11       -8.573527   1.000000
   12       -8.060102   1.000000
   13       -7.534582   1.000000
   14       -7.127495   1.000000
   15       -6.981081   1.000000
   16       -6.301690   1.000000
   17       -6.081436   1.000000
   18       -5.598283   1.000000
   19       -5.317487   1.000000
   20       -4.949646   1.000000
   21       -4.867519   1.000000
   22       -4.697701   1.000000
   23       -4.627492   1.000000
   24       -4.439319   1.000000
   25       -4.352850   1.000000
   26       -4.030411   1.000000
   27       -3.922813   1.000000
   28       -3.745472   1.000000
   29       -3.627958   1.000000
   30       -3.499012   1.000000
   31       -3.170402   1.000000
   32       -3.030477   1.000000
   33       -2.940081   1.000000
   34       -2.647701   1.000000
   35       -2.512557   1.000000