   55   55   85    1
  0.1298907E+02  0.6078000E-09  0.6078000E-09  0.2233000E-08  0.5000000E-15
   1.0000000000000000E-004
  CAR 
 Name                                    
    203     41    132

  0.3742002E-15  0.3742002E-15  0.1262379E-14  0.1234568E-01
    1      -11.224169   1.000000
    2      -10.650227   1.000000
    3       -9.833634   1.000000
    4       -8.498940   1.000000
    5       -8.351901   1.000000
    6       -8.331651   1.000000
    7       -7.946555   1.000000
    8       -7.892121   1.000000
    9       -7.756424   1.000000
   10       -7.628986   1.000000
   11       -7.486350   1.000000
   12       -7.428118   1.000000
   13       -7.418280   1.000000
   14       -7.417289   1.000000
   15       -7.090448   1.000000
   16       -7.066593   1.000000
   17       -7.035809   1.000000
   18       -6.826445   1.000000
   19       -6.783184   1.000000
   20       -6.532257   1.000000
   21       -6.306656   1.000000
   22       -5.924552   1.000000
   23       -5.883530   1.000000
   24       -5.656804   1.000000
   25       -5.597039   1.000000
   26       -5.541119   1.000000
   27       -5.516209   1.000000
   28       -5.190490   1.000000
   29       -5.010258   1.000000
   30       -4.920211   1.000000
   31       -4.427746   1.000000
   32       -4.333793   1.000000
   33       -4.273356   1.000000
   34       -4.224491   1.000000
   35       -3.995914   1.000000
   36       -3.885509   1.000000
   37       -3.805731   1.000000
   38       -3.284830   1.000000
   39       -3.088773   1.000000
   40       -2.944776   1.000000
   41       -2.754121   1.000000
   42       -2.725550   1.000000
   43       -2.560506   1.000000
   44       -2.432468   1.000000
   45       -2.360968   1.000000
   46       -2.199222   1.000000
   47       -2.197467   1.000000
   48       -2.031954   1.000000
   49       -1.999068   1.000000
   50       -1.837700   1.000000
   51       -1.718441   1.000000
   52       -1.682619   1.000000
   53       -1.631982   1.000000
   54       -1.609726   1.000000
   55       -1.567600   1.000000
   56       -1.481506   1.000000
   57       -1.406493   1.000000
   58       -1.352984   1.000000
   59       -1.292204   1.000000
   60       -1.286306   1.000000
   61       -1.227328   1.000000
   62       -1.197712   1.000000
   63       -1.046180   1.000000
   64       -0.867061   1.000000
   65       -0.838322   1.000000
   66       -0.820714   1.000000
   67       -0.645122   1.000000
   68       -0.637331   1.000000
   69       -0.556201   1.000000
   70       -0.544354   1.000000
   71       -0.505025   1.000000
   72       -0.442065   1.000000
   73       -0.384621   1.000000
   74       -0.302418   1.000000
   75        0.022228   1.000000
   76        0.108708   1.000000
   77        0.132722   1.000000
   78        0.261206   1.000000
   79        0.421521   1.000000
   80        0.579637   1.000000
   81        0.672548   1.000000
   82        0.716557   1.000000
   83        0.833392   1.000000
   84        1.335289   1.000000
   85        1.400127   1.000000
   86        1.494983   1.000000
   87        1.527346   1.000000
   88        1.572702   1.000000
   89        1.684274   1.000000
   90        1.724281   1.000000
   91        1.828600   1.000000
   92        1.868641   1.000000
   93        1.911284   1.000000
   94        1.924456   1.000000
   95        2.080066   1.000000
   96        2.198661   1.000000
   97        2.422294   1.000043
   98        2.484908   1.000246
   99        2.857996   1.019811
  100        2.961458   0.834009
  101        3.029004   0.584161
  102        3.232387  -0.014218
  103        3.254222  -0.027627
  104        3.388695  -0.018615
  105        3.494390  -0.003591
  106        3.634429  -0.000140
  107        3.641418  -0.000115
  108        3.826530  -0.000000
  109        3.847369  -0.000000
  110        3.869189  -0.000000
  111        3.900747  -0.000000
  112        3.986060  -0.000000
  113        4.130426  -0.000000
  114        4.135166  -0.000000
  115        4.195294  -0.000000
  116        4.213586  -0.000000
  117        4.253209  -0.000000
  118        4.342712  -0.000000
  119        4.361793  -0.000000
  120        4.469263  -0.000000
  121        4.535825  -0.000000
  122        4.537182  -0.000000
  123        4.583223  -0.000000
  124        4.608192  -0.000000
  125        4.627762  -0.000000
  126        4.700126  -0.000000
  127        4.711929  -0.000000
  128        4.817115  -0.000000
  129        5.099739  -0.000000
  130        5.346570  -0.000000
  131        5.382595  -0.000000
  132        5.465867  -0.000000

  0.1111111E+00  0.3687552E-15  0.1262379E-14  0.2469136E-01
    1      -11.166573   1.000000
    2      -10.598209   1.000000
    3       -9.794979   1.000000
    4       -8.465714   1.000000
    5       -8.367513   1.000000
    6       -8.316032   1.000000
    7       -8.064304   1.000000
    8       -8.034521   1.000000
    9       -7.927063   1.000000
   10       -7.822681   1.000000
   11       -7.721356   1.000000
   12       -7.671068   1.000000
   13       -7.539384   1.000000
   14       -7.505248   1.000000
   15       -6.926596   1.000000
   16       -6.850428   1.000000
   17       -6.716961   1.000000
   18       -6.664009   1.000000
   19       -6.561162   1.000000
   20       -6.391588   1.000000
   21       -6.248270   1.000000
   22       -5.928260   1.000000
   23       -5.828265   1.000000
   24       -5.712743   1.000000
   25       -5.575923   1.000000
   26       -5.526583   1.000000
   27       -5.410805   1.000000
   28       -5.198348   1.000000
   29       -5.044977   1.000000
   30       -4.936304   1.000000
   31       -4.344305   1.000000
   32       -4.262467   1.000000
   33       -4.204443   1.000000
   34       -4.059951   1.000000
   35       -3.909880   1.000000
   36       -3.806340   1.000000
   37       -3.612419   1.000000
   38       -3.266283   1.000000
   39       -3.078472   1.000000
   40       -2.916812   1.000000
   41       -2.807831   1.000000
   42       -2.686493   1.000000
   43       -2.649571   1.000000
   44       -2.411636   1.000000
   45       -2.386024   1.000000
   46       -2.273162   1.000000
   47       -2.235423   1.000000
   48       -2.151640   1.000000
   49       -2.085993   1.000000
   50       -1.979746   1.000000
   51       -1.770714   1.000000
   52       -1.690269   1.000000
   53       -1.626753   1.000000
   54       -1.614779   1.000000
   55       -1.541589   1.000000
   56       -1.447946   1.000000
   57       -1.395037   1.000000
   58       -1.329819   1.000000
   59       -1.300395   1.000000
   60       -1.239029   1.000000
   61       -1.225826   1.000000
   62       -1.174342   1.000000
   63       -1.079268   1.000000
   64       -0.940362   1.000000
   65       -0.896263   1.000000
   66       -0.849452   1.000000
   67       -0.809954   1.000000
   68       -0.696086   1.000000
   69       -0.677709   1.000000
   70       -0.569142   1.000000
   71       -0.493267   1.000000
   72       -0.457172   1.000000
   73       -0.326546   1.000000
   74       -0.232894   1.000000
   75       -0.040516   1.000000
   76        0.022264   1.000000
   77        0.098184   1.000000
   78        0.267909   1.000000
   79        0.312871   1.000000
   80        0.386944   1.000000
   81        0.574992   1.000000
   82        0.677307   1.000000
   83        0.789143   1.000000
   84        1.153940   1.000000
   85        1.205578   1.000000
   86        1.309301   1.000000
   87        1.481684   1.000000
   88        1.593742   1.000000
   89        1.644668   1.000000
   90        1.760509   1.000000
   91        1.769787   1.000000
   92        1.845301   1.000000
   93        1.878525   1.000000
   94        1.998023   1.000000
   95        2.084587   1.000000
   96        2.198176   1.000000
   97        2.632311   1.006048
   98        2.735218   1.024504
   99        2.906969   0.963377
  100        2.916692   0.945731
  101        3.051885   0.487813
  102        3.116435   0.231861
  103        3.171713   0.074002
  104        3.341246  -0.029342
  105        3.423592  -0.011789
  106        3.699984  -0.000021
  107        3.794064  -0.000001
  108        3.832870  -0.000000
  109        3.863523  -0.000000
  110        3.886548  -0.000000
  111        3.930107  -0.000000
  112        3.980290  -0.000000
  113        4.061102  -0.000000
  114        4.135470  -0.000000
  115        4.165945  -0.000000
  116        4.204760  -0.000000
  117        4.247618  -0.000000
  118        4.273475  -0.000000
  119        4.304875  -0.000000
  120        4.419228  -0.000000
  121        4.453373  -0.000000
  122        4.484494  -0.000000
  123        4.519237  -0.000000
  124        4.590952  -0.000000
  125        4.618157  -0.000000
  126        4.664564  -0.000000
  127        4.713867  -0.000000
  128        4.839733  -0.000000
  129        5.068538  -0.000000
  130        5.198882  -0.000000
  131        5.277047  -0.000000
  132        5.401877  -0.000000

  0.2222222E+00  0.3503827E-15  0.1262379E-14  0.2469136E-01
    1      -10.995969   1.000000
    2      -10.444758   1.000000
    3       -9.682771   1.000000
    4       -8.688980   1.000000
    5       -8.529745   1.000000
    6       -8.425429   1.000000
    7       -8.354647   1.000000
    8       -8.212296   1.000000
    9       -8.035272   1.000000
   10       -7.917157   1.000000
   11       -7.867260   1.000000
   12       -7.851435   1.000000
   13       -7.745041   1.000000
   14       -7.682900   1.000000
   15       -6.835821   1.000000
   16       -6.714632   1.000000
   17       -6.492511   1.000000
   18       -6.435920   1.000000
   19       -6.366366   1.000000
   20       -6.198941   1.000000
   21       -5.895546   1.000000
   22       -5.760271   1.000000
   23       -5.665191   1.000000
   24       -5.598389   1.000000
   25       -5.515709   1.000000
   26       -5.429269   1.000000
   27       -5.265836   1.000000
   28       -5.180593   1.000000
   29       -4.885771   1.000000
   30       -4.748331   1.000000
   31       -4.202491   1.000000
   32       -4.101740   1.000000
   33       -4.076437   1.000000
   34       -3.745426   1.000000
   35       -3.659736   1.000000
   36       -3.559550   1.000000
   37       -3.248586   1.000000
   38       -3.189375   1.000000
   39       -3.077157   1.000000
   40       -3.011650   1.000000
   41       -2.921969   1.000000
   42       -2.830018   1.000000
   43       -2.804357   1.000000
   44       -2.684653   1.000000
   45       -2.535133   1.000000
   46       -2.326277   1.000000
   47       -2.288345   1.000000
   48       -2.224348   1.000000
   49       -2.058273   1.000000
   50       -1.942981   1.000000
   51       -1.835222   1.000000
   52       -1.723151   1.000000
   53       -1.678358   1.000000
   54       -1.632927   1.000000
   55       -1.606682   1.000000
   56       -1.540245   1.000000
   57       -1.469376   1.000000
   58       -1.403955   1.000000
   59       -1.327437   1.000000
   60       -1.259117   1.000000
   61       -1.241397   1.000000
   62       -1.205344   1.000000
   63       -1.180242   1.000000
   64       -1.072218   1.000000
   65       -1.038146   1.000000
   66       -0.970022   1.000000
   67       -0.908085   1.000000
   68       -0.862890   1.000000
   69       -0.775035   1.000000
   70       -0.726823   1.000000
   71       -0.578011   1.000000
   72       -0.485465   1.000000
   73       -0.375745   1.000000
   74       -0.330023   1.000000
   75       -0.266251   1.000000
   76       -0.206028   1.000000
   77        0.079457   1.000000
   78        0.187602   1.000000
   79        0.247775   1.000000
   80        0.326833   1.000000
   81        0.450850   1.000000
   82        0.664075   1.000000
   83        0.775837   1.000000
   84        0.867345   1.000000
   85        0.950607   1.000000
   86        1.179312   1.000000
   87        1.233431   1.000000
   88        1.446281   1.000000
   89        1.561621   1.000000
   90        1.651999   1.000000
   91        1.726731   1.000000
   92        1.738720   1.000000
   93        1.912501   1.000000
   94        2.024108   1.000000
   95        2.109821   1.000000
   96        2.168054   1.000000
   97        2.580901   1.002292
   98        2.646174   1.007635
   99        2.807675   1.035406
  100        3.015239   0.640641
  101        3.046931   0.508775
  102        3.249054  -0.025153
  103        3.357028  -0.025833
  104        3.443497  -0.008730
  105        3.545406  -0.001254
  106        3.646242  -0.000101
  107        3.668101  -0.000054
  108        3.726756  -0.000009
  109        3.740775  -0.000006
  110        3.767149  -0.000002
  111        3.862263  -0.000000
  112        3.943588  -0.000000
  113        3.987705  -0.000000
  114        4.015295  -0.000000
  115        4.062291  -0.000000
  116        4.105411  -0.000000
  117        4.177572  -0.000000
  118        4.212779  -0.000000
  119        4.283144  -0.000000
  120        4.340702  -0.000000
  121        4.385238  -0.000000
  122        4.447776  -0.000000
  123        4.511738  -0.000000
  124        4.568544  -0.000000
  125        4.613653  -0.000000
  126        4.733537  -0.000000
  127        4.786659  -0.000000
  128        4.815903  -0.000000
  129        4.962255  -0.000000
  130        5.058572  -0.000000
  131        5.119399  -0.000000
  132        5.255744  -0.000000

  0.3333333E+00  0.3767071E-15  0.1262379E-14  0.2469136E-01
    1      -10.719589   1.000000
    2      -10.198186   1.000000
    3       -9.510873   1.000000
    4       -9.288315   1.000000
    5       -8.969218   1.000000
    6       -8.684207   1.000000
    7       -8.223841   1.000000
    8       -8.141047   1.000000
    9       -8.073452   1.000000
   10       -8.031975   1.000000
   11       -7.968274   1.000000
   12       -7.884488   1.000000
   13       -7.851291   1.000000
   14       -7.775015   1.000000
   15       -7.068828   1.000000
   16       -7.048406   1.000000
   17       -6.281889   1.000000
   18       -6.185348   1.000000
   19       -6.018258   1.000000
   20       -5.882450   1.000000
   21       -5.762958   1.000000
   22       -5.664314   1.000000
   23       -5.586536   1.000000
   24       -5.521007   1.000000
   25       -5.373929   1.000000
   26       -5.290201   1.000000
   27       -4.836108   1.000000
   28       -4.695872   1.000000
   29       -4.451636   1.000000
   30       -4.326032   1.000000
   31       -4.013680   1.000000
   32       -3.910610   1.000000
   33       -3.811903   1.000000
   34       -3.595066   1.000000
   35       -3.488759   1.000000
   36       -3.418199   1.000000
   37       -3.372477   1.000000
   38       -3.317155   1.000000
   39       -3.261000   1.000000
   40       -3.198239   1.000000
   41       -3.109636   1.000000
   42       -3.041809   1.000000
   43       -2.763989   1.000000
   44       -2.600061   1.000000
   45       -2.492024   1.000000
   46       -2.405383   1.000000
   47       -2.220365   1.000000
   48       -2.170057   1.000000
   49       -2.110248   1.000000
   50       -2.025714   1.000000
   51       -1.957636   1.000000
   52       -1.916952   1.000000
   53       -1.820246   1.000000
   54       -1.788676   1.000000
   55       -1.718755   1.000000
   56       -1.600556   1.000000
   57       -1.570613   1.000000
   58       -1.486889   1.000000
   59       -1.469760   1.000000
   60       -1.412458   1.000000
   61       -1.366135   1.000000
   62       -1.297410   1.000000
   63       -1.258676   1.000000
   64       -1.203286   1.000000
   65       -1.143896   1.000000
   66       -1.060238   1.000000
   67       -0.986394   1.000000
   68       -0.943095   1.000000
   69       -0.850607   1.000000
   70       -0.815541   1.000000
   71       -0.676136   1.000000
   72       -0.574469   1.000000
   73       -0.536543   1.000000
   74       -0.385513   1.000000
   75       -0.330003   1.000000
   76       -0.280480   1.000000
   77       -0.252577   1.000000
   78        0.013599   1.000000
   79        0.155615   1.000000
   80        0.358555   1.000000
   81        0.579207   1.000000
   82        0.616591   1.000000
   83        0.757504   1.000000
   84        0.860409   1.000000
   85        0.917783   1.000000
   86        1.037336   1.000000
   87        1.223028   1.000000
   88        1.275443   1.000000
   89        1.414780   1.000000
   90        1.541791   1.000000
   91        1.629533   1.000000
   92        1.693537   1.000000
   93        1.838545   1.000000
   94        1.931148   1.000000
   95        1.992760   1.000000
   96        2.328089   1.000002
   97        2.400153   1.000022
   98        2.460091   1.000127
   99        2.621242   1.004977
  100        2.938679   0.897126
  101        3.013466   0.647777
  102        3.145686   0.139151
  103        3.194618   0.030710
  104        3.294771  -0.035455
  105        3.326426  -0.032233
  106        3.439255  -0.009329
  107        3.543870  -0.001298
  108        3.603904  -0.000312
  109        3.674011  -0.000046
  110        3.739529  -0.000006
  111        3.779175  -0.000002
  112        3.831357  -0.000000
  113        3.848731  -0.000000
  114        3.966388  -0.000000
  115        4.009975  -0.000000
  116        4.098670  -0.000000
  117        4.148196  -0.000000
  118        4.179303  -0.000000
  119        4.234646  -0.000000
  120        4.305553  -0.000000
  121        4.393328  -0.000000
  122        4.473623  -0.000000
  123        4.573485  -0.000000
  124        4.634495  -0.000000
  125        4.689530  -0.000000
  126        4.722748  -0.000000
  127        4.818800  -0.000000
  128        4.868968  -0.000000
  129        4.942839  -0.000000
  130        5.023403  -0.000000
  131        5.172618  -0.000000
  132        5.272919  -0.000000

  0.4444444E+00  0.3698634E-15  0.1262379E-14  0.2469136E-01
    1      -10.361245   1.000000
    2       -9.894438   1.000000
    3       -9.797070   1.000000
    4       -9.454566   1.000000
    5       -9.252585   1.000000
    6       -8.946114   1.000000
    7       -8.190515   1.000000
    8       -8.139193   1.000000
    9       -8.106477   1.000000
   10       -8.040009   1.000000
   11       -7.910035   1.000000
   12       -7.905338   1.000000
   13       -7.811266   1.000000
   14       -7.758861   1.000000
   15       -7.439792   1.000000
   16       -7.231343   1.000000
   17       -6.186195   1.000000
   18       -6.078917   1.000000
   19       -5.934118   1.000000
   20       -5.701134   1.000000
   21       -5.681056   1.000000
   22       -5.480519   1.000000
   23       -5.452763   1.000000
   24       -5.358570   1.000000
   25       -5.301543   1.000000
   26       -5.241763   1.000000
   27       -4.262669   1.000000
   28       -4.089309   1.000000
   29       -4.051058   1.000000
   30       -3.978321   1.000000
   31       -3.898669   1.000000
   32       -3.831550   1.000000
   33       -3.746770   1.000000
   34       -3.658043   1.000000
   35       -3.600838   1.000000
   36       -3.527006   1.000000
   37       -3.443977   1.000000
   38       -3.387782   1.000000
   39       -3.356893   1.000000
   40       -3.252727   1.000000
   41       -3.164106   1.000000
   42       -3.050272   1.000000
   43       -3.007985   1.000000
   44       -2.941125   1.000000
   45       -2.523757   1.000000
   46       -2.476614   1.000000
   47       -2.327196   1.000000
   48       -2.208173   1.000000
   49       -2.078526   1.000000
   50       -2.027550   1.000000
   51       -1.991957   1.000000
   52       -1.887073   1.000000
   53       -1.861355   1.000000
   54       -1.810575   1.000000
   55       -1.723748   1.000000
   56       -1.678856   1.000000
   57       -1.637182   1.000000
   58       -1.579164   1.000000
   59       -1.519694   1.000000
   60       -1.469534   1.000000
   61       -1.440553   1.000000
   62       -1.411982   1.000000
   63       -1.333039   1.000000
   64       -1.313843   1.000000
   65       -1.184332   1.000000
   66       -1.148919   1.000000
   67       -1.074339   1.000000
   68       -0.957829   1.000000
   69       -0.899155   1.000000
   70       -0.812283   1.000000
   71       -0.755177   1.000000
   72       -0.628020   1.000000
   73       -0.577837   1.000000
   74       -0.456711   1.000000
   75       -0.401727   1.000000
   76       -0.323741   1.000000
   77       -0.301267   1.000000
   78       -0.241927   1.000000
   79        0.249641   1.000000
   80        0.421989   1.000000
   81        0.471862   1.000000
   82        0.480069   1.000000
   83        0.818932   1.000000
   84        0.912515   1.000000
   85        0.991198   1.000000
   86        1.053019   1.000000
   87        1.183296   1.000000
   88        1.241087   1.000000
   89        1.336038   1.000000
   90        1.460094   1.000000
   91        1.607996   1.000000
   92        1.680345   1.000000
   93        1.738388   1.000000
   94        1.975833   1.000000
   95        2.081828   1.000000
   96        2.336150   1.000003
   97        2.373355   1.000010
   98        2.445784   1.000085
   99        2.507656   1.000438
  100        2.575322   1.002043
  101        2.610762   1.004108
  102        2.943825   0.883989
  103        3.045087   0.516575
  104        3.141962   0.149852
  105        3.241212  -0.020597
  106        3.327073  -0.032120
  107        3.432275  -0.010376
  108        3.510620  -0.002614
  109        3.547825  -0.001189
  110        3.640819  -0.000117
  111        3.690506  -0.000028
  112        3.700759  -0.000020
  113        3.781508  -0.000001
  114        3.856676  -0.000000
  115        3.948143  -0.000000
  116        4.042187  -0.000000
  117        4.107246  -0.000000
  118        4.166052  -0.000000
  119        4.213224  -0.000000
  120        4.308189  -0.000000
  121        4.458177  -0.000000
  122        4.590021  -0.000000
  123        4.611266  -0.000000
  124        4.694805  -0.000000
  125        4.761443  -0.000000
  126        4.804039  -0.000000
  127        4.934268  -0.000000
  128        5.014818  -0.000000
  129        5.084001  -0.000000
  130        5.165433  -0.000000
  131        5.268999  -0.000000
  132        5.411213  -0.000000

  0.3742002E-15  0.1111111E+00  0.1262379E-14  0.2469136E-01
    1      -11.166573   1.000000
    2      -10.598209   1.000000
    3       -9.794978   1.000000
    4       -8.465760   1.000000
    5       -8.367537   1.000000
    6       -8.316000   1.000000
    7       -8.064370   1.000000
    8       -8.034651   1.000000
    9       -7.927067   1.000000
   10       -7.822779   1.000000
   11       -7.721282   1.000000
   12       -7.670725   1.000000
   13       -7.539328   1.000000
   14       -7.505169   1.000000
   15       -6.926807   1.000000
   16       -6.850529   1.000000
   17       -6.717248   1.000000
   18       -6.663597   1.000000
   19       -6.561015   1.000000
   20       -6.391502   1.000000
   21       -6.248308   1.000000
   22       -5.928195   1.000000
   23       -5.828416   1.000000
   24       -5.712848   1.000000
   25       -5.575959   1.000000
   26       -5.526629   1.000000
   27       -5.410872   1.000000
   28       -5.198511   1.000000
   29       -5.045194   1.000000
   30       -4.936140   1.000000
   31       -4.344686   1.000000
   32       -4.262161   1.000000
   33       -4.204833   1.000000
   34       -4.060026   1.000000
   35       -3.908290   1.000000
   36       -3.806216   1.000000
   37       -3.613148   1.000000
   38       -3.266443   1.000000
   39       -3.078379   1.000000
   40       -2.916948   1.000000
   41       -2.807891   1.000000
   42       -2.686444   1.000000
   43       -2.649374   1.000000
   44       -2.411557   1.000000
   45       -2.386189   1.000000
   46       -2.273316   1.000000
   47       -2.235452   1.000000
   48       -2.151633   1.000000
   49       -2.085837   1.000000
   50       -1.979529   1.000000
   51       -1.770150   1.000000
   52       -1.690642   1.000000
   53       -1.626534   1.000000
   54       -1.615265   1.000000
   55       -1.541723   1.000000
   56       -1.447878   1.000000
   57       -1.394875   1.000000
   58       -1.329840   1.000000
   59       -1.300472   1.000000
   60       -1.239655   1.000000
   61       -1.224604   1.000000
   62       -1.174883   1.000000
   63       -1.079254   1.000000
   64       -0.940796   1.000000
   65       -0.895931   1.000000
   66       -0.849013   1.000000
   67       -0.809586   1.000000
   68       -0.697088   1.000000
   69       -0.677662   1.000000
   70       -0.569453   1.000000
   71       -0.493437   1.000000
   72       -0.456928   1.000000
   73       -0.326515   1.000000
   74       -0.232310   1.000000
   75       -0.041079   1.000000
   76        0.023067   1.000000
   77        0.097606   1.000000
   78        0.267949   1.000000
   79        0.313380   1.000000
   80        0.386252   1.000000
   81        0.575013   1.000000
   82        0.677019   1.000000
   83        0.789527   1.000000
   84        1.153879   1.000000
   85        1.205197   1.000000
   86        1.309137   1.000000
   87        1.481991   1.000000
   88        1.594786   1.000000
   89        1.643475   1.000000
   90        1.760595   1.000000
   91        1.769927   1.000000
   92        1.845312   1.000000
   93        1.879089   1.000000
   94        1.997403   1.000000
   95        2.085352   1.000000
   96        2.197811   1.000000
   97        2.631673   1.005982
   98        2.735866   1.024654
   99        2.905276   0.966213
  100        2.918151   0.942882
  101        3.052373   0.485748
  102        3.116255   0.232491
  103        3.171287   0.074929
  104        3.341531  -0.029281
  105        3.423841  -0.011747
  106        3.700090  -0.000021
  107        3.793625  -0.000001
  108        3.832635  -0.000000
  109        3.863509  -0.000000
  110        3.886905  -0.000000
  111        3.929871  -0.000000
  112        3.980786  -0.000000
  113        4.061127  -0.000000
  114        4.135165  -0.000000
  115        4.165845  -0.000000
  116        4.204687  -0.000000
  117        4.247733  -0.000000
  118        4.273571  -0.000000
  119        4.304753  -0.000000
  120        4.418979  -0.000000
  121        4.453808  -0.000000
  122        4.484447  -0.000000
  123        4.519188  -0.000000
  124        4.590428  -0.000000
  125        4.617421  -0.000000
  126        4.665918  -0.000000
  127        4.714228  -0.000000
  128        4.839618  -0.000000
  129        5.068932  -0.000000
  130        5.197590  -0.000000
  131        5.277276  -0.000000
  132        5.402150  -0.000000

  0.1111111E+00  0.1111111E+00  0.1262379E-14  0.2469136E-01
    1      -11.052215   1.000000
    2      -10.495448   1.000000
    3       -9.719724   1.000000
    4       -8.435361   1.000000
    5       -8.418925   1.000000
    6       -8.407827   1.000000
    7       -8.286943   1.000000
    8       -8.270204   1.000000
    9       -8.127436   1.000000
   10       -8.051660   1.000000
   11       -7.997722   1.000000
   12       -7.826640   1.000000
   13       -7.542608   1.000000
   14       -7.138522   1.000000
   15       -7.079968   1.000000
   16       -6.752963   1.000000
   17       -6.608443   1.000000
   18       -6.593140   1.000000
   19       -6.461684   1.000000
   20       -6.053240   1.000000
   21       -5.981890   1.000000
   22       -5.900657   1.000000
   23       -5.706455   1.000000
   24       -5.679939   1.000000
   25       -5.457663   1.000000
   26       -5.370782   1.000000
   27       -5.344881   1.000000
   28       -5.092060   1.000000
   29       -5.036912   1.000000
   30       -4.811644   1.000000
   31       -4.430878   1.000000
   32       -4.369455   1.000000
   33       -3.852956   1.000000
   34       -3.813769   1.000000
   35       -3.720607   1.000000
   36       -3.603399   1.000000
   37       -3.341535   1.000000
   38       -3.260745   1.000000
   39       -3.103234   1.000000
   40       -2.991128   1.000000
   41       -2.884761   1.000000
   42       -2.813916   1.000000
   43       -2.655342   1.000000
   44       -2.577082   1.000000
   45       -2.442614   1.000000
   46       -2.287017   1.000000
   47       -2.276595   1.000000
   48       -2.131228   1.000000
   49       -2.080876   1.000000
   50       -1.997330   1.000000
   51       -1.943008   1.000000
   52       -1.769445   1.000000
   53       -1.727442   1.000000
   54       -1.643725   1.000000
   55       -1.529722   1.000000
   56       -1.477344   1.000000
   57       -1.417667   1.000000
   58       -1.346768   1.000000
   59       -1.326694   1.000000
   60       -1.249870   1.000000
   61       -1.204821   1.000000
   62       -1.165184   1.000000
   63       -1.068701   1.000000
   64       -1.063979   1.000000
   65       -1.038090   1.000000
   66       -0.956736   1.000000
   67       -0.888009   1.000000
   68       -0.815455   1.000000
   69       -0.733398   1.000000
   70       -0.636765   1.000000
   71       -0.539278   1.000000
   72       -0.439628   1.000000
   73       -0.405026   1.000000
   74       -0.335498   1.000000
   75       -0.233215   1.000000
   76       -0.155521   1.000000
   77        0.036429   1.000000
   78        0.273902   1.000000
   79        0.285282   1.000000
   80        0.380169   1.000000
   81        0.498498   1.000000
   82        0.626812   1.000000
   83        0.685707   1.000000
   84        0.803043   1.000000
   85        1.059634   1.000000
   86        1.274893   1.000000
   87        1.340430   1.000000
   88        1.608887   1.000000
   89        1.623965   1.000000
   90        1.671482   1.000000
   91        1.687169   1.000000
   92        1.703116   1.000000
   93        1.828374   1.000000
   94        2.063095   1.000000
   95        2.115606   1.000000
   96        2.227911   1.000000
   97        2.632376   1.006055
   98        2.782549   1.033925