   52   52    1    1
  0.1588198E+02  0.6071501E-09  0.6071501E-09  0.2586333E-08  0.5000000E-15
   1.0000000000000000E-004
  CAR 
 Name                                    
    196     41    126

  0.3742002E-15  0.3742002E-15  0.1262379E-14  0.1234568E-01
    1      -12.507101   1.000000
    2      -11.824394   1.000000
    3      -11.074418   1.000000
    4      -10.190268   1.000000
    5       -9.394736   1.000000
    6       -9.309775   1.000000
    7       -9.207650   1.000000
    8       -8.923835   1.000000
    9       -8.803357   1.000000
   10       -8.775846   1.000000
   11       -8.609294   1.000000
   12       -8.561287   1.000000
   13       -8.556572   1.000000
   14       -8.516532   1.000000
   15       -8.484158   1.000000
   16       -8.468728   1.000000
   17       -8.183739   1.000000
   18       -7.896417   1.000000
   19       -7.865198   1.000000
   20       -7.830740   1.000000
   21       -7.227812   1.000000
   22       -7.150863   1.000000
   23       -6.999725   1.000000
   24       -6.782934   1.000000
   25       -6.650436   1.000000
   26       -6.578335   1.000000
   27       -6.396042   1.000000
   28       -5.525296   1.000000
   29       -5.433213   1.000000
   30       -5.398157   1.000000
   31       -4.467984   1.000000
   32       -4.358060   1.000000
   33       -4.298836   1.000000
   34       -4.183786   1.000000
   35       -3.701379   1.000000
   36       -3.679702   1.000000
   37       -3.623839   1.000000
   38       -3.597892   1.000000
   39       -3.577097   1.000000
   40       -3.535941   1.000000
   41       -3.470412   1.000000
   42       -3.435619   1.000000
   43       -3.362635   1.000000
   44       -3.032446   1.000000
   45       -2.966611   1.000000
   46       -2.902603   1.000000
   47       -2.890802   1.000000
   48       -2.883872   1.000000
   49       -2.857546   1.000000
   50       -2.796091   1.000000
   51       -2.760991   1.000000
   52       -2.756366   1.000000
   53       -2.530303   1.000000
   54       -2.497592   1.000000
   55       -2.373189   1.000000
   56       -2.320432   1.000000
   57       -2.309000   1.000000
   58       -2.285075   1.000000
   59       -2.267226   1.000000
   60       -2.252058   1.000000
   61       -2.148150   1.000000
   62       -2.027958   1.000000
   63       -1.999487   1.000000
   64       -1.966205   1.000000
   65       -1.936241   1.000000
   66       -1.906679   1.000000
   67       -1.706828   1.000000
   68       -1.631244   1.000000
   69       -1.424678   1.000000
   70       -1.401462   1.000000
   71       -1.142903   1.000000
   72       -1.017684   1.000000
   73       -0.988093   1.000000
   74       -0.984785   1.000000
   75       -0.482384   1.000000
   76       -0.047552   1.000000
   77       -0.000552   1.000000
   78        0.082472   1.000000
   79        0.225164   1.000000
   80        0.284258   1.000000
   81        0.396735   1.000000
   82        0.469989   1.000000
   83        0.594070   1.000000
   84        0.647613   1.000000
   85        0.844267   1.000000
   86        0.867964   1.000000
   87        1.079498   1.000000
   88        1.244352   1.000000
   89        1.339466   1.000000
   90        1.618733   1.000305
   91        1.643590   1.000565
   92        1.733328   1.003893
   93        1.830325   1.017657
   94        1.988738   1.016040
   95        2.014628   0.989825
   96        2.060708   0.905489
   97        2.085160   0.839300
   98        2.323772   0.024906
   99        2.486971  -0.024798
  100        2.529504  -0.015401
  101        2.592557  -0.005903
  102        2.596849  -0.005476
  103        2.760082  -0.000139
  104        2.829659  -0.000018
  105        2.947853  -0.000000
  106        2.979983  -0.000000
  107        2.987392  -0.000000
  108        3.102514  -0.000000
  109        3.111888  -0.000000
  110        3.122646  -0.000000
  111        3.231846  -0.000000
  112        3.267471  -0.000000
  113        3.293401  -0.000000
  114        3.355183  -0.000000
  115        3.373455  -0.000000
  116        3.411879  -0.000000
  117        3.459285  -0.000000
  118        3.498916  -0.000000
  119        3.566856  -0.000000
  120        3.715237  -0.000000
  121        3.931402  -0.000000
  122        3.995317  -0.000000
  123        4.346856  -0.000000
  124        4.656270  -0.000000
  125        4.704834  -0.000000
  126        4.730599  -0.000000

  0.1111111E+00  0.3762813E-15  0.1262379E-14  0.2469136E-01
    1      -12.449025   1.000000
    2      -11.773035   1.000000
    3      -11.037079   1.000000
    4      -10.155940   1.000000
    5       -9.474228   1.000000
    6       -9.319003   1.000000
    7       -9.299807   1.000000
    8       -9.231556   1.000000
    9       -9.085629   1.000000
   10       -8.964925   1.000000
   11       -8.870916   1.000000
   12       -8.829792   1.000000
   13       -8.784101   1.000000
   14       -8.477459   1.000000
   15       -8.133370   1.000000
   16       -8.110115   1.000000
   17       -7.773879   1.000000
   18       -7.753351   1.000000
   19       -7.706562   1.000000
   20       -7.476973   1.000000
   21       -7.202885   1.000000
   22       -7.103425   1.000000
   23       -6.902755   1.000000
   24       -6.806313   1.000000
   25       -6.636095   1.000000
   26       -6.546787   1.000000
   27       -6.273721   1.000000
   28       -5.428872   1.000000
   29       -5.351579   1.000000
   30       -5.241105   1.000000
   31       -4.453164   1.000000
   32       -4.351794   1.000000
   33       -4.322202   1.000000
   34       -4.157252   1.000000
   35       -3.763740   1.000000
   36       -3.742082   1.000000
   37       -3.691591   1.000000
   38       -3.641980   1.000000
   39       -3.551179   1.000000
   40       -3.537327   1.000000
   41       -3.455010   1.000000
   42       -3.438103   1.000000
   43       -3.403772   1.000000
   44       -3.345459   1.000000
   45       -3.338209   1.000000
   46       -3.024848   1.000000
   47       -2.936131   1.000000
   48       -2.872826   1.000000
   49       -2.848595   1.000000
   50       -2.758629   1.000000
   51       -2.698195   1.000000
   52       -2.656401   1.000000
   53       -2.497884   1.000000
   54       -2.465492   1.000000
   55       -2.420597   1.000000
   56       -2.401476   1.000000
   57       -2.307905   1.000000
   58       -2.272568   1.000000
   59       -2.212362   1.000000
   60       -2.193813   1.000000
   61       -2.097591   1.000000
   62       -2.058375   1.000000
   63       -2.017704   1.000000
   64       -1.979978   1.000000
   65       -1.872421   1.000000
   66       -1.791971   1.000000
   67       -1.720406   1.000000
   68       -1.664566   1.000000
   69       -1.460768   1.000000
   70       -1.350327   1.000000
   71       -1.328088   1.000000
   72       -1.197196   1.000000
   73       -1.115719   1.000000
   74       -1.036262   1.000000
   75       -0.508944   1.000000
   76       -0.229154   1.000000
   77       -0.180566   1.000000
   78        0.058552   1.000000
   79        0.195928   1.000000
   80        0.318558   1.000000
   81        0.394296   1.000000
   82        0.449134   1.000000
   83        0.489989   1.000000
   84        0.574920   1.000000
   85        0.645753   1.000000
   86        0.770519   1.000000
   87        1.232657   1.000000
   88        1.304781   1.000000
   89        1.444733   1.000002
   90        1.665800   1.000952
   91        1.710620   1.002500
   92        1.775334   1.008109
   93        1.845763   1.021070
   94        1.858981   1.024113
   95        1.930345   1.035455
   96        2.029709   0.967884
   97        2.128975   0.687034
   98        2.374166  -0.024977
   99        2.464583  -0.029785
  100        2.545932  -0.012325
  101        2.563288  -0.009535
  102        2.695658  -0.000712
  103        2.765984  -0.000118
  104        2.790444  -0.000059
  105        2.832150  -0.000017
  106        2.882795  -0.000003
  107        2.950890  -0.000000
  108        3.055249  -0.000000
  109        3.077418  -0.000000
  110        3.098155  -0.000000
  111        3.131183  -0.000000
  112        3.206764  -0.000000
  113        3.248834  -0.000000
  114        3.302228  -0.000000
  115        3.341387  -0.000000
  116        3.390131  -0.000000
  117        3.457262  -0.000000
  118        3.541732  -0.000000
  119        3.545814  -0.000000
  120        3.605506  -0.000000
  121        3.648124  -0.000000
  122        3.845132  -0.000000
  123        4.202147  -0.000000
  124        4.580352  -0.000000
  125        4.725876  -0.000000
  126        4.839305  -0.000000

  0.2222222E+00  0.3499357E-15  0.1262379E-14  0.2469136E-01
    1      -12.276639   1.000000
    2      -11.621161   1.000000
    3      -10.927667   1.000000
    4      -10.056235   1.000000
    5       -9.974219   1.000000
    6       -9.699935   1.000000
    7       -9.566267   1.000000
    8       -9.336250   1.000000
    9       -9.330591   1.000000
   10       -9.134963   1.000000
   11       -9.078816   1.000000
   12       -8.960892   1.000000
   13       -8.944449   1.000000
   14       -8.733120   1.000000
   15       -7.748041   1.000000
   16       -7.688827   1.000000
   17       -7.533217   1.000000
   18       -7.458522   1.000000
   19       -7.157726   1.000000
   20       -7.119868   1.000000
   21       -6.941999   1.000000
   22       -6.906612   1.000000
   23       -6.793400   1.000000
   24       -6.640214   1.000000
   25       -6.378737   1.000000
   26       -6.257090   1.000000
   27       -5.994444   1.000000
   28       -5.333234   1.000000
   29       -5.213302   1.000000
   30       -4.755553   1.000000
   31       -4.479141   1.000000
   32       -4.445286   1.000000
   33       -4.281622   1.000000
   34       -4.123916   1.000000
   35       -4.061337   1.000000
   36       -4.026628   1.000000
   37       -4.013543   1.000000
   38       -3.965079   1.000000
   39       -3.742349   1.000000
   40       -3.634709   1.000000
   41       -3.521251   1.000000
   42       -3.508069   1.000000
   43       -3.430293   1.000000
   44       -3.364839   1.000000
   45       -3.319319   1.000000
   46       -3.048137   1.000000
   47       -3.013239   1.000000
   48       -2.947996   1.000000
   49       -2.937272   1.000000
   50       -2.804316   1.000000
   51       -2.760334   1.000000
   52       -2.694272   1.000000
   53       -2.564407   1.000000
   54       -2.534848   1.000000
   55       -2.441050   1.000000
   56       -2.406166   1.000000
   57       -2.299357   1.000000
   58       -2.273796   1.000000
   59       -2.203152   1.000000
   60       -2.192326   1.000000
   61       -2.165770   1.000000
   62       -2.118452   1.000000
   63       -2.053970   1.000000
   64       -2.042089   1.000000
   65       -1.944542   1.000000
   66       -1.901070   1.000000
   67       -1.767464   1.000000
   68       -1.704765   1.000000
   69       -1.591926   1.000000
   70       -1.470664   1.000000
   71       -1.377072   1.000000
   72       -1.176978   1.000000
   73       -0.986787   1.000000
   74       -0.970448   1.000000
   75       -0.699875   1.000000
   76       -0.544276   1.000000
   77       -0.375213   1.000000
   78       -0.207417   1.000000
   79        0.018194   1.000000
   80        0.173251   1.000000
   81        0.375699   1.000000
   82        0.408916   1.000000
   83        0.432610   1.000000
   84        0.538212   1.000000
   85        0.546958   1.000000
   86        0.698034   1.000000
   87        0.976277   1.000000
   88        1.188873   1.000000
   89        1.331416   1.000000
   90        1.440360   1.000001
   91        1.661907   1.000871
   92        1.808182   1.013255
   93        1.852333   1.022576
   94        1.919232   1.035079
   95        1.998627   1.007616
   96        2.167345   0.530061
   97        2.278980   0.117728
   98        2.361457  -0.017002
   99        2.396656  -0.033143
  100        2.459576  -0.030799
  101        2.510627  -0.019389
  102        2.557341  -0.010436
  103        2.635775  -0.002629
  104        2.686585  -0.000879
  105        2.745504  -0.000205
  106        2.832301  -0.000017
  107        2.860085  -0.000007
  108        2.941147  -0.000000
  109        3.038952  -0.000000
  110        3.045721  -0.000000
  111        3.088541  -0.000000
  112        3.113632  -0.000000
  113        3.148184  -0.000000
  114        3.244883  -0.000000
  115        3.286297  -0.000000
  116        3.312009  -0.000000
  117        3.391473  -0.000000
  118        3.403533  -0.000000
  119        3.454537  -0.000000
  120        3.512474  -0.000000
  121        3.658839  -0.000000
  122        3.681744  -0.000000
  123        3.777543  -0.000000
  124        3.860139  -0.000000
  125        4.040162  -0.000000
  126        4.847959  -0.000000

  0.3333333E+00  0.3916643E-15  0.1262379E-14  0.2469136E-01
    1      -11.995303   1.000000
    2      -11.375502   1.000000
    3      -10.755212   1.000000
    4      -10.584178   1.000000
    5      -10.169688   1.000000
    6       -9.926160   1.000000
    7       -9.881397   1.000000
    8       -9.407560   1.000000
    9       -9.393883   1.000000
   10       -9.210611   1.000000
   11       -9.207840   1.000000
   12       -9.060049   1.000000
   13       -9.045191   1.000000
   14       -9.036978   1.000000
   15       -7.617559   1.000000
   16       -7.521227   1.000000
   17       -7.145992   1.000000
   18       -7.124226   1.000000
   19       -6.867740   1.000000
   20       -6.843665   1.000000
   21       -6.765632   1.000000
   22       -6.705045   1.000000
   23       -6.156285   1.000000
   24       -6.010237   1.000000
   25       -5.960725   1.000000
   26       -5.723522   1.000000
   27       -5.623656   1.000000
   28       -5.241670   1.000000
   29       -5.034170   1.000000
   30       -4.755160   1.000000
   31       -4.728415   1.000000
   32       -4.593924   1.000000
   33       -4.547388   1.000000
   34       -4.497498   1.000000
   35       -4.440712   1.000000
   36       -4.356218   1.000000
   37       -4.085511   1.000000
   38       -3.924249   1.000000
   39       -3.789820   1.000000
   40       -3.732538   1.000000
   41       -3.685943   1.000000
   42       -3.548508   1.000000
   43       -3.384931   1.000000
   44       -3.280929   1.000000
   45       -3.256404   1.000000
   46       -3.178695   1.000000
   47       -3.161335   1.000000
   48       -3.146181   1.000000
   49       -3.053510   1.000000
   50       -2.962441   1.000000
   51       -2.847729   1.000000
   52       -2.794594   1.000000
   53       -2.726532   1.000000
   54       -2.670089   1.000000
   55       -2.543446   1.000000
   56       -2.478262   1.000000
   57       -2.447741   1.000000
   58       -2.359831   1.000000
   59       -2.311295   1.000000
   60       -2.200036   1.000000
   61       -2.190982   1.000000
   62       -2.148350   1.000000
   63       -2.119476   1.000000
   64       -2.028738   1.000000
   65       -1.956902   1.000000
   66       -1.911980   1.000000
   67       -1.826693   1.000000
   68       -1.796885   1.000000
   69       -1.611044   1.000000
   70       -1.381684   1.000000
   71       -1.316082   1.000000
   72       -1.212502   1.000000
   73       -1.044886   1.000000
   74       -0.782028   1.000000
   75       -0.636681   1.000000
   76       -0.567774   1.000000
   77       -0.446223   1.000000
   78       -0.390959   1.000000
   79       -0.260150   1.000000
   80       -0.055494   1.000000
   81        0.246480   1.000000
   82        0.281225   1.000000
   83        0.335838   1.000000
   84        0.385182   1.000000
   85        0.673810   1.000000
   86        0.733076   1.000000
   87        0.913651   1.000000
   88        1.021455   1.000000
   89        1.153534   1.000000
   90        1.318339   1.000000
   91        1.442355   1.000001
   92        1.610224   1.000245
   93        1.672075   1.001098
   94        1.868086   1.026212
   95        1.909056   1.034061
   96        1.935477   1.035315
   97        2.116198   0.735293
   98        2.169442   0.521202
   99        2.232349   0.266037
  100        2.312980   0.042727
  101        2.417118  -0.035437
  102        2.454016  -0.031852
  103        2.469767  -0.028683
  104        2.567539  -0.008925
  105        2.621453  -0.003482
  106        2.730962  -0.000299
  107        2.797531  -0.000048
  108        2.830649  -0.000018
  109        2.950191  -0.000000
  110        2.959419  -0.000000
  111        3.010503  -0.000000
  112        3.076825  -0.000000
  113        3.147037  -0.000000
  114        3.213195  -0.000000
  115        3.236454  -0.000000
  116        3.368141  -0.000000
  117        3.471456  -0.000000
  118        3.515996  -0.000000
  119        3.557526  -0.000000
  120        3.659465  -0.000000
  121        3.725829  -0.000000
  122        3.771572  -0.000000
  123        3.815380  -0.000000
  124        4.004440  -0.000000
  125        4.076872  -0.000000
  126        4.174998  -0.000000

  0.4444444E+00  0.3830161E-15  0.1262379E-14  0.2469136E-01
    1      -11.613573   1.000000
    2      -11.151383   1.000000
    3      -11.032432   1.000000
    4      -10.634565   1.000000
    5      -10.514495   1.000000
    6      -10.240631   1.000000
    7       -9.650580   1.000000
    8       -9.467249   1.000000
    9       -9.442951   1.000000
   10       -9.362949   1.000000
   11       -9.257660   1.000000
   12       -9.225974   1.000000
   13       -9.111462   1.000000
   14       -9.079432   1.000000
   15       -7.616940   1.000000
   16       -7.543431   1.000000
   17       -6.862310   1.000000
   18       -6.856081   1.000000
   19       -6.583744   1.000000
   20       -6.572869   1.000000
   21       -6.529626   1.000000
   22       -6.498266   1.000000
   23       -5.600925   1.000000
   24       -5.418441   1.000000
   25       -5.399909   1.000000
   26       -5.322021   1.000000
   27       -5.248467   1.000000
   28       -5.235511   1.000000
   29       -5.207413   1.000000
   30       -5.023615   1.000000
   31       -4.955224   1.000000
   32       -4.900386   1.000000
   33       -4.745323   1.000000
   34       -4.677189   1.000000
   35       -4.612217   1.000000
   36       -4.557372   1.000000
   37       -4.415696   1.000000
   38       -4.203155   1.000000
   39       -4.009167   1.000000
   40       -3.785638   1.000000
   41       -3.675532   1.000000
   42       -3.604699   1.000000
   43       -3.457741   1.000000
   44       -3.428631   1.000000
   45       -3.331026   1.000000
   46       -3.229207   1.000000
   47       -3.136867   1.000000
   48       -3.079915   1.000000
   49       -3.018573   1.000000
   50       -2.963641   1.000000
   51       -2.886952   1.000000
   52       -2.804795   1.000000
   53       -2.776815   1.000000
   54       -2.641403   1.000000
   55       -2.614293   1.000000
   56       -2.587081   1.000000
   57       -2.537538   1.000000
   58       -2.506148   1.000000
   59       -2.335475   1.000000
   60       -2.287782   1.000000
   61       -2.257334   1.000000
   62       -2.222421   1.000000
   63       -2.205415   1.000000
   64       -2.024245   1.000000
   65       -1.988497   1.000000
   66       -1.892963   1.000000
   67       -1.838512   1.000000
   68       -1.740876   1.000000
   69       -1.544040   1.000000
   70       -1.427280   1.000000
   71       -1.200343   1.000000
   72       -1.106017   1.000000
   73       -0.986396   1.000000
   74       -0.929341   1.000000
   75       -0.827385   1.000000
   76       -0.555572   1.000000
   77       -0.464309   1.000000
   78       -0.321784   1.000000
   79       -0.115832   1.000000
   80       -0.065277   1.000000
   81        0.074321   1.000000
   82        0.105056   1.000000
   83        0.221185   1.000000
   84        0.299320   1.000000
   85        0.726636   1.000000
   86        0.806094   1.000000
   87        0.927688   1.000000
   88        1.101643   1.000000
   89        1.166023   1.000000
   90        1.268099   1.000000
   91        1.315359   1.000000
   92        1.336895   1.000000
   93        1.554475   1.000053
   94        1.718271   1.002912
   95        1.726062   1.003390
   96        1.775078   1.008075
   97        1.886108   1.030152
   98        2.004027   1.002210
   99        2.057362   0.913384
  100        2.067543   0.888485
  101        2.190637   0.431772
  102        2.252061   0.197425
  103        2.397264  -0.033273
  104        2.414298  -0.035354
  105        2.512785  -0.018913
  106        2.591328  -0.006030
  107        2.646286  -0.002123
  108        2.767906  -0.000112
  109        2.862711  -0.000006
  110        2.914050  -0.000001
  111        2.928671  -0.000001
  112        3.088515  -0.000000
  113        3.156441  -0.000000
  114        3.248932  -0.000000
  115        3.340534  -0.000000
  116        3.503112  -0.000000
  117        3.589974  -0.000000
  118        3.631997  -0.000000
  119        3.708913  -0.000000
  120        3.787358  -0.000000
  121        3.859779  -0.000000
  122        3.954863  -0.000000
  123        4.004982  -0.000000
  124        4.046996  -0.000000
  125        4.158654  -0.000000
  126        4.307083  -0.000000

  0.3742002E-15  0.1111111E+00  0.1262379E-14  0.2469136E-01
    1      -12.449025   1.000000
    2      -11.773035   1.000000
    3      -11.037079   1.000000
    4      -10.155940   1.000000
    5       -9.474225   1.000000
    6       -9.318943   1.000000
    7       -9.299868   1.000000
    8       -9.231535   1.000000
    9       -9.085637   1.000000
   10       -8.965029   1.000000
   11       -8.870817   1.000000
   12       -8.829813   1.000000
   13       -8.784058   1.000000
   14       -8.477468   1.000000
   15       -8.133403   1.000000
   16       -8.110092   1.000000
   17       -7.773940   1.000000
   18       -7.753364   1.000000
   19       -7.706536   1.000000
   20       -7.476915   1.000000
   21       -7.202900   1.000000
   22       -7.103387   1.000000
   23       -6.902856   1.000000
   24       -6.806371   1.000000
   25       -6.636524   1.000000
   26       -6.546126   1.000000
   27       -6.273806   1.000000
   28       -5.429211   1.000000
   29       -5.351366   1.000000
   30       -5.240976   1.000000
   31       -4.453323   1.000000
   32       -4.351732   1.000000
   33       -4.322190   1.000000
   34       -4.157248   1.000000
   35       -3.763851   1.000000
   36       -3.741746   1.000000
   37       -3.691563   1.000000
   38       -3.641985   1.000000
   39       -3.551107   1.000000
   40       -3.537572   1.000000
   41       -3.455305   1.000000
   42       -3.437677   1.000000
   43       -3.403894   1.000000
   44       -3.345477   1.000000
   45       -3.338264   1.000000
   46       -3.025172   1.000000
   47       -2.935966   1.000000
   48       -2.872610   1.000000
   49       -2.848284   1.000000
   50       -2.758668   1.000000
   51       -2.698374   1.000000
   52       -2.656520   1.000000
   53       -2.497626   1.000000
   54       -2.465861   1.000000
   55       -2.420605   1.000000
   56       -2.401239   1.000000
   57       -2.308244   1.000000
   58       -2.272509   1.000000
   59       -2.212264   1.000000
   60       -2.193743   1.000000
   61       -2.097610   1.000000
   62       -2.058449   1.000000
   63       -2.017672   1.000000
   64       -1.979982   1.000000
   65       -1.872110   1.000000
   66       -1.792006   1.000000
   67       -1.720398   1.000000
   68       -1.664765   1.000000
   69       -1.460750   1.000000
   70       -1.350313   1.000000
   71       -1.328157   1.000000
   72       -1.197160   1.000000
   73       -1.115630   1.000000
   74       -1.036403   1.000000
   75       -0.509073   1.000000
   76       -0.229070   1.000000
   77       -0.180576   1.000000
   78        0.058547   1.000000
   79        0.195968   1.000000
   80        0.318362   1.000000
   81        0.394311   1.000000
   82        0.448586   1.000000
   83        0.490499   1.000000
   84        0.575784   1.000000
   85        0.645265   1.000000
   86        0.770468   1.000000
   87        1.232685   1.000000
   88        1.304747   1.000000
   89        1.444520   1.000002
   90        1.665810   1.000953
   91        1.710860   1.002512
   92        1.775321   1.008107
   93        1.845817   1.021082
   94        1.858911   1.024097
   95        1.930334   1.035455
   96        2.029644   0.967990
   97        2.129056   0.686719
   98        2.374153  -0.024970
   99        2.464510  -0.029800
  100        2.545430  -0.012413
  101        2.563669  -0.009479
  102        2.695846  -0.000709
  103        2.765767  -0.000119
  104        2.790486  -0.000059
  105        2.832309  -0.000017
  106        2.882528  -0.000003
  107        2.951054  -0.000000
  108        3.055380  -0.000000
  109        3.077865  -0.000000
  110        3.098008  -0.000000
  111        3.130587  -0.000000
  112        3.206501  -0.000000
  113        3.233337  -0.000000
  114        3.302455  -0.000000
  115        3.325370  -0.000000
  116        3.390375  -0.000000
  117        3.460906  -0.000000
  118        3.498453  -0.000000
  119        3.571164  -0.000000
  120        3.607853  -0.000000
  121        3.733487  -0.000000
  122        3.817241  -0.000000
  123        4.002589  -0.000000
  124        4.643199  -0.000000
  125        4.755344  -0.000000
  126        4.837710  -0.000000

  0.1111111E+00  0.1111111E+00  0.1262379E-14  0.2469136E-01
    1      -12.333826   1.000000
    2      -11.671245   1.000000
    3      -10.962982   1.000000
    4      -10.082806   1.000000
    5       -9.643676   1.000000
    6       -9.637307   1.000000
    7       -9.492109   1.000000
    8       -9.435266   1.000000
    9       -9.340211   1.000000
   10       -9.280780   1.000000
   11       -9.155647   1.000000
   12       -8.743860   1.000000
   13       -8.661150   1.000000
   14       -8.382496   1.000000
   15       -8.381580   1.000000
   16       -7.752511   1.000000
   17       -7.592176   1.000000
   18       -7.311828   1.000000
   19       -7.295044   1.000000
   20       -7.181312   1.000000
   21       -7.063571   1.000000
   22       -6.925628   1.000000
   23       -6.771439   1.000000
   24       -6.639352   1.000000
   25       -6.547637   1.000000
   26       -6.540028   1.000000
   27       -6.195584   1.000000
   28       -5.289431   1.000000
   29       -5.159129   1.000000
   30       -4.924507   1.000000
   31       -4.496131   1.000000
   32       -4.408759   1.000000
   33       -4.275652   1.000000
   34       -4.116364   1.000000
   35       -4.083454   1.000000
   36       -4.053689   1.000000
   37       -3.725092   1.000000
   38       -3.706224   1.000000
   39       -3.621429   1.000000
   40       -3.602964   1.000000
   41       -3.489736   1.000000
   42       -3.460707   1.000000
   43       -3.440273   1.000000
   44       -3.364125   1.000000
   45       -3.306306   1.000000
   46       -3.257230   1.000000
   47       -3.003845   1.000000
   48       -2.982502   1.000000
   49       -2.892763   1.000000
   50       -2.788779   1.000000
   51       -2.782101   1.000000
   52       -2.726211   1.000000
   53       -2.565865   1.000000
   54       -2.456227   1.000000
   55       -2.448799   1.000000
   56       -2.382531   1.000000
   57       -2.340999   1.000000
   58       -2.173100   1.000000
   59       -2.165485   1.000000
   60       -2.146441   1.000000
   61       -2.132890   1.000000
   62       -2.034627   1.000000
   63       -2.027308   1.000000
   64       -1.962833   1.000000
   65       -1.915134   1.000000
   66       -1.871963   1.000000
   67       -1.804978   1.000000
   68       -1.707616   1.000000
   69       -1.572164   1.000000
   70       -1.473975   1.000000
   71       -1.455133   1.000000
   72       -1.194018   1.000000
   73       -1.076590   1.000000
   74       -0.967896   1.000000
   75       -0.574199   1.000000
   76       -0.512392   1.000000
   77       -0.365421   1.000000
   78       -0.139368   1.000000
   79        0.114461   1.000000
   80        0.237245   1.000000
   81        0.366602   1.000000
   82        0.406072   1.000000
   83        0.455890   1.000000
   84        0.484893   1.000000
   85        0.616414   1.000000
   86        0.629476   1.000000
   87        1.104066   1.000000
   88        1.199932   1.000000
   89        1.434854   1.000001
   90        1.633437   1.000441
   91        1.700423   1.002028
   92        1.760501   1.006340
   93        1.845618   1.021037
   94        1.975322   1.024671
   95        1.993852   1.011915
   96        2.101392   0.787470
   97        2.275742   0.126387
   98        2.296811   0.074768
   99        2.366152  -0.020266
  100        2.484358  -0.025401
  101        2.565598  -0.009200
  102        2.608901  -0.004408
  103        2.697537  -0.000681
  104        2.742770  -0.000220
  105        2.751785  -0.000174
  106        2.846735  -0.000011
  107        2.933345  -0.000001
  108        2.944016  -0.000000
  109        3.013429  -0.000000
  110        3.064353  -0.000000
  111        3.118061  -0.000000
  112        3.189984  -0.000000
  113        3.203963  -0.000000
  114        3.255995  -0.000000
  115        3.297338  -0.000000
  116        3.316327  -0.000000
  117        3.367783  -0.000000
  118        3.424395  -0.000000
  119        3.493019  -0.000000
  120        3.529835  -0.000000
  121        3.547034  -0.000000
  122        3.709067  -0.000000
  123        3.735274  -0.000000
  124        3.855820  -0.000000
  125        4.150770  -0.000000
  126        4.767634  -0.000000

  0.2222222E+00  0.1111111E+00  0.1262379E-14  0.2469136E-01
    1      -12.106955   1.000000
    2      -11.472168   1.000000
    3      -10.820631   1.000000
    4      -10.250695   1.000000
    5       -9.943177   1.000000
    6       -9.898219   1.000000