 running on   54 total cores
 distrk:  each k-point on   54 cores,    1 groups
 distr:  one band on    9 cores,    6 groups
 using from now: INCAR     
 vasp.5.4.4.18Apr17-6-g9f103f2a35 (build Dec  7 2020 12:43:57) complex           
 POSCAR found type information on POSCAR  Mo V  B  H 
 POSCAR found :  4 types and      52 ions
 scaLAPACK will be used

 ----------------------------------------------------------------------------- 
|                                                                             |
|  ADVICE TO THIS USER RUNNING 'VASP/VAMP'   (HEAR YOUR MASTER'S VOICE ...):  |
|                                                                             |
|      You enforced a specific xc-type in the INCAR file,                     |
|      a different type was found on the POTCAR file                          |
|          I HOPE YOU KNOW, WHAT YOU ARE  DOING                               |
|                                                                             |
 ----------------------------------------------------------------------------- 

 LDA part: xc-table for Pade appr. of Perdew
 POSCAR, INCAR and KPOINTS ok, starting setup
 resort distribution
 resort distribution
 resort distribution
 resort distribution
 resort distribution
 resort distribution
 resort distribution
 resort distribution
 resort distribution
 resort distribution
 resort distribution
 resort distribution
 resort distribution
 resort distribution
 resort distribution
 resort distribution
 resort distribution
 resort distribution
 resort distribution
 resort distribution
 resort distribution
 resort distribution
 resort distribution
 resort distribution
 resort distribution
 resort distribution
 resort distribution
 resort distribution
 resort distribution
 resort distribution
 resort distribution
 resort distribution
 resort distribution
 resort distribution
 resort distribution
 resort distribution
 resort distribution
 resort distribution
 resort distribution
 resort distribution
 resort distribution
 resort distribution
 resort distribution
 resort distribution
 resort distribution
 resort distribution
 resort distribution
 resort distribution
 resort distribution
 resort distribution
 resort distribution
 resort distribution
 resort distribution
 resort distribution
 FFT: planning ...
 WAVECAR not read
 augmentation electrons   196.02799810014548     
 soft         electrons   0.0000000000000000     
 augmentation electrons   196.02799810014548     
 soft         electrons   0.0000000000000000     
 augmentation electrons   196.02799810014548     
 soft         electrons   0.0000000000000000     
 augmentation electrons   196.02799810014548     
 soft         electrons   0.0000000000000000     
 augmentation electrons   196.02799810014548     
 soft         electrons   0.0000000000000000     
 augmentation electrons   196.02799810014548     
 soft         electrons   0.0000000000000000     
 augmentation electrons   196.02799810014548     
 soft         electrons   0.0000000000000000     
 augmentation electrons   196.02799810014548     
 soft         electrons   0.0000000000000000     
 augmentation electrons   196.02799810014548     
 soft         electrons   0.0000000000000000     
 augmentation electrons   196.02799810014548     
 soft         electrons   0.0000000000000000     
 augmentation electrons   196.02799810014548     
 soft         electrons   0.0000000000000000     
 augmentation electrons   196.02799810014548     
 soft         electrons   0.0000000000000000     
 augmentation electrons   196.02799810014548     
 soft         electrons   0.0000000000000000     
 augmentation electrons   196.02799810014548     
 soft         electrons   0.0000000000000000     
 augmentation electrons   196.02799810014548     
 soft         electrons   0.0000000000000000     
 augmentation electrons   196.02799810014548     
 soft         electrons   0.0000000000000000     
 augmentation electrons   196.02799810014548     
 soft         electrons   0.0000000000000000     
 augmentation electrons   196.02799810014548     
 soft         electrons   0.0000000000000000     
 augmentation electrons   196.02799810014548     
 soft         electrons   0.0000000000000000     
 augmentation electrons   196.02799810014548     
 soft         electrons   0.0000000000000000     
 augmentation electrons   196.02799810014548     
 soft         electrons   0.0000000000000000     
 augmentation electrons   196.02799810014548     
 soft         electrons   0.0000000000000000     
 augmentation electrons   196.02799810014548     
 soft         electrons   0.0000000000000000     
 augmentation electrons   196.02799810014548     
 soft         electrons   0.0000000000000000     
 augmentation electrons   196.02799810014548     
 soft         electrons   0.0000000000000000     
 augmentation electrons   196.02799810014548     
 soft         electrons   0.0000000000000000     
 augmentation electrons   196.02799810014548     
 soft         electrons   0.0000000000000000     
 augmentation electrons   196.02799810014548     
 soft         electrons   0.0000000000000000     
 augmentation electrons   196.02799810014548     
 soft         electrons   0.0000000000000000     
 augmentation electrons   196.02799810014548     
 soft         electrons   0.0000000000000000     
 augmentation electrons   196.02799810014548     
 soft         electrons   0.0000000000000000     
 augmentation electrons   196.02799810014548     
 soft         electrons   0.0000000000000000     
 augmentation electrons   196.02799810014548     
 soft         electrons   0.0000000000000000     
 augmentation electrons   196.02799810014548     
 soft         electrons   0.0000000000000000     
 augmentation electrons   196.02799810014548     
 soft         electrons   0.0000000000000000     
 augmentation electrons   196.02799810014548     
 soft         electrons   0.0000000000000000     
 augmentation electrons   196.02799810014548     
 soft         electrons   0.0000000000000000     
 augmentation electrons   196.02799810014548     
 soft         electrons   0.0000000000000000     
 augmentation electrons   196.02799810014548     
 soft         electrons   0.0000000000000000     
 augmentation electrons   196.02799810014548     
 soft         electrons   0.0000000000000000     
 augmentation electrons   196.02799810014548     
 soft         electrons   0.0000000000000000     
 augmentation electrons   196.02799810014548     
 soft         electrons   0.0000000000000000     
 augmentation electrons   196.02799810014548     
 soft         electrons   0.0000000000000000     
 augmentation electrons   196.02799810014548     
 soft         electrons   0.0000000000000000     
 augmentation electrons   196.02799810014548     
 soft         electrons   0.0000000000000000     
 augmentation electrons   196.02799810014548     
 soft         electrons   0.0000000000000000     
 augmentation electrons   196.02799810014548     
 soft         electrons   0.0000000000000000     
 augmentation electrons   196.02799810014548     
 soft         electrons   0.0000000000000000     
 augmentation electrons   196.02799810014548     
 soft         electrons   0.0000000000000000     
 augmentation electrons   196.02799810014548     
 soft         electrons   0.0000000000000000     
 augmentation electrons   196.02799810014548     
 soft         electrons   0.0000000000000000     
 augmentation electrons   196.02799810014548     
 soft         electrons   0.0000000000000000     
 augmentation electrons   196.02799810014548     
 soft         electrons   0.0000000000000000     
 total        electrons   196.02799810014548     
 total        electrons   196.02799810014548     
 total        electrons   196.02799810014548     
 total        electrons   196.02799810014548     
 total        electrons   196.02799810014548     
 total        electrons   196.02799810014548     
 total        electrons   196.02799810014548     
 total        electrons   196.02799810014548     
 total        electrons   196.02799810014548     
 total        electrons   196.02799810014548     
 total        electrons   196.02799810014548     
 total        electrons   196.02799810014548     
 total        electrons   196.02799810014548     
 total        electrons   196.02799810014548     
 total        electrons   196.02799810014548     
 total        electrons   196.02799810014548     
 total        electrons   196.02799810014548     
 total        electrons   196.02799810014548     
 total        electrons   196.02799810014548     
 total        electrons   196.02799810014548     
 total        electrons   196.02799810014548     
 total        electrons   196.02799810014548     
 total        electrons   196.02799810014548     
 total        electrons   196.02799810014548     
 total        electrons   196.02799810014548     
 total        electrons   196.02799810014548     
 total        electrons   196.02799810014548     
 total        electrons   196.02799810014548     
 augmentation electrons   196.02799810014548     
 soft         electrons   0.0000000000000000     
 total        electrons   196.02799810014548     
 total        electrons   196.02799810014548     
 total        electrons   196.02799810014548     
 total        electrons   196.02799810014548     
 total        electrons   196.02799810014548     
 total        electrons   196.02799810014548     
 total        electrons   196.02799810014548     
 total        electrons   196.02799810014548     
 total        electrons   196.02799810014548     
 total        electrons   196.02799810014548     
 total        electrons   196.02799810014548     
 total        electrons   196.02799810014548     
 total        electrons   196.02799810014548     
 total        electrons   196.02799810014548     
 total        electrons   196.02799810014548     
 total        electrons   196.02799810014548     
 total        electrons   196.02799810014548     
 total        electrons   196.02799810014548     
 total        electrons   196.02799810014548     
 total        electrons   196.02799810014548     
 total        electrons   196.02799810014548     
 total        electrons   196.02799810014548     
 total        electrons   196.02799810014548     
 total        electrons   196.02799810014548     
 total        electrons   196.02799810014548     
 total        electrons   196.02799810014548     
 augmentation electrons   674.76448151490251     
 soft         electrons   0.0000000000000000     
 total        electrons   674.76448151490251     
 augmentation electrons   674.76448151490251     
 soft         electrons   0.0000000000000000     
 augmentation electrons   674.76448151490251     
 soft         electrons   0.0000000000000000     
 total        electrons   674.76448151490251     
 augmentation electrons   674.76448151490251     
 soft         electrons   0.0000000000000000     
 total        electrons   674.76448151490251     
 augmentation electrons   674.76448151490251     
 soft         electrons   0.0000000000000000     
 total        electrons   674.76448151490251     
 augmentation electrons   674.76448151490251     
 soft         electrons   0.0000000000000000     
 total        electrons   674.76448151490251     
 augmentation electrons   674.76448151490251     
 soft         electrons   0.0000000000000000     
 total        electrons   674.76448151490251     
 augmentation electrons   674.76448151490251     
 soft         electrons   0.0000000000000000     
 total        electrons   674.76448151490251     
 augmentation electrons   674.76448151490251     
 soft         electrons   0.0000000000000000     
 total        electrons   674.76448151490251     
 augmentation electrons   674.76448151490251     
 soft         electrons   0.0000000000000000     
 total        electrons   674.76448151490251     
 augmentation electrons   674.76448151490251     
 soft         electrons   0.0000000000000000     
 total        electrons   674.76448151490251     
 augmentation electrons   674.76448151490251     
 soft         electrons   0.0000000000000000     
 total        electrons   674.76448151490251     
 augmentation electrons   674.76448151490251     
 soft         electrons   0.0000000000000000     
 total        electrons   674.76448151490251     
 augmentation electrons   674.76448151490251     
 soft         electrons   0.0000000000000000     
 total        electrons   674.76448151490251     
 augmentation electrons   674.76448151490251     
 soft         electrons   0.0000000000000000     
 total        electrons   674.76448151490251     
 augmentation electrons   674.76448151490251     
 soft         electrons   0.0000000000000000     
 total        electrons   674.76448151490251     
 augmentation electrons   674.76448151490251     
 soft         electrons   0.0000000000000000     
 total        electrons   674.76448151490251     
 augmentation electrons   674.76448151490251     
 soft         electrons   0.0000000000000000     
 total        electrons   674.76448151490251     
 augmentation electrons   674.76448151490251     
 soft         electrons   0.0000000000000000     
 total        electrons   674.76448151490251     
 augmentation electrons   674.76448151490251     
 soft         electrons   0.0000000000000000     
 total        electrons   674.76448151490251     
 augmentation electrons   674.76448151490251     
 soft         electrons   0.0000000000000000     
 total        electrons   674.76448151490251     
 augmentation electrons   674.76448151490251     
 soft         electrons   0.0000000000000000     
 total        electrons   674.76448151490251     
 augmentation electrons   674.76448151490251     
 soft         electrons   0.0000000000000000     
 total        electrons   674.76448151490251     
 augmentation electrons   674.76448151490251     
 soft         electrons   0.0000000000000000     
 total        electrons   674.76448151490251     
 augmentation electrons   674.76448151490251     
 soft         electrons   0.0000000000000000     
 total        electrons   674.76448151490251     
 augmentation electrons   674.76448151490251     
 soft         electrons   0.0000000000000000     
 total        electrons   674.76448151490251     
 augmentation electrons   674.76448151490251     
 soft         electrons   0.0000000000000000     
 total        electrons   674.76448151490251     
 augmentation electrons   674.76448151490251     
 soft         electrons   0.0000000000000000     
 total        electrons   674.76448151490251     
 augmentation electrons   674.76448151490251     
 soft         electrons   0.0000000000000000     
 total        electrons   674.76448151490251     
 augmentation electrons   674.76448151490251     
 soft         electrons   0.0000000000000000     
 total        electrons   674.76448151490251     
 augmentation electrons   674.76448151490251     
 soft         electrons   0.0000000000000000     
 total        electrons   674.76448151490251     
 augmentation electrons   674.76448151490251     
 soft         electrons   0.0000000000000000     
 total        electrons   674.76448151490251     
 augmentation electrons   674.76448151490251     
 soft         electrons   0.0000000000000000     
 total        electrons   674.76448151490251     
 augmentation electrons   674.76448151490251     
 soft         electrons   0.0000000000000000     
 total        electrons   674.76448151490251     
 augmentation electrons   674.76448151490251     
 soft         electrons   0.0000000000000000     
 total        electrons   674.76448151490251     
 augmentation electrons   674.76448151490251     
 soft         electrons   0.0000000000000000     
 total        electrons   674.76448151490251     
 augmentation electrons   674.76448151490251     
 soft         electrons   0.0000000000000000     
 total        electrons   674.76448151490251     
 augmentation electrons   674.76448151490251     
 soft         electrons   0.0000000000000000     
 total        electrons   674.76448151490251     
 augmentation electrons   674.76448151490251     
 soft         electrons   0.0000000000000000     
 total        electrons   674.76448151490251     
 augmentation electrons   674.76448151490251     
 soft         electrons   0.0000000000000000     
 total        electrons   674.76448151490251     
 augmentation electrons   674.76448151490251     
 soft         electrons   0.0000000000000000     
 total        electrons   674.76448151490251     
 augmentation electrons   674.76448151490251     
 soft         electrons   0.0000000000000000     
 total        electrons   674.76448151490251     
 augmentation electrons   674.76448151490251     
 soft         electrons   0.0000000000000000     
 total        electrons   674.76448151490251     
 augmentation electrons   674.76448151490251     
 soft         electrons   0.0000000000000000     
 total        electrons   674.76448151490251     
 augmentation electrons   674.76448151490251     
 soft         electrons   0.0000000000000000     
 total        electrons   674.76448151490251     
 augmentation electrons   674.76448151490251     
 soft         electrons   0.0000000000000000     
 total        electrons   674.76448151490251     
 augmentation electrons   674.76448151490251     
 soft         electrons   0.0000000000000000     
 total        electrons   674.76448151490251     
 augmentation electrons   674.76448151490251     
 soft         electrons   0.0000000000000000     
 total        electrons   674.76448151490251     
 augmentation electrons   674.76448151490251     
 soft         electrons   0.0000000000000000     
 total        electrons   674.76448151490251     
 augmentation electrons   674.76448151490251     
 soft         electrons   0.0000000000000000     
 total        electrons   674.76448151490251     
 augmentation electrons   674.76448151490251     
 soft         electrons   0.0000000000000000     
 total        electrons   674.76448151490251     
 augmentation electrons   674.76448151490251     
 soft         electrons   0.0000000000000000     
 total        electrons   674.76448151490251     
 augmentation electrons   674.76448151490251     
 soft         electrons   0.0000000000000000     
 total        electrons   674.76448151490251     
 augmentation electrons   674.76448151490251     
 soft         electrons   0.0000000000000000     
 total        electrons   674.76448151490251     
 total        electrons   674.76448151490251     
 entering main loop
       N       E                     dE             d eps       ncg     rms          rms(c)
DAV:   1     0.177281728318E+04    0.17728E+04   -0.73163E+04 10332   0.134E+03
DAV:   2    -0.118087585951E+03   -0.18909E+04   -0.17322E+04 11202   0.340E+02
DAV:   3    -0.436056346222E+03   -0.31797E+03   -0.30327E+03 15180   0.153E+02
DAV:   4    -0.461029106965E+03   -0.24973E+02   -0.23945E+02 16812   0.448E+01
DAV:   5    -0.462373559467E+03   -0.13445E+01   -0.13030E+01 17436   0.909E+00    0.116E+02
RMM:   6    -0.443423896098E+03    0.18950E+02   -0.79756E+02 16396   0.887E+01    0.620E+01
RMM:   7    -0.674854081700E+03   -0.23143E+03   -0.70161E+02 16109   0.973E+01    0.590E+01
RMM:   8    -0.516005510946E+03    0.15885E+03   -0.29551E+02 16233   0.422E+01    0.432E+01
RMM:   9    -0.416633276352E+03    0.99372E+02   -0.51558E+01 13031   0.256E+01    0.306E+01
RMM:  10    -0.394304072984E+03    0.22329E+02   -0.39300E+01 11903   0.234E+01    0.195E+01
RMM:  11    -0.394922787692E+03   -0.61871E+00   -0.28001E+01 16239   0.994E+00    0.158E+01
RMM:  12    -0.392940372374E+03    0.19824E+01   -0.33327E+00 14936   0.438E+00    0.131E+01
RMM:  13    -0.393811473217E+03   -0.87110E+00   -0.12370E+00 14769   0.290E+00    0.134E+01
RMM:  14    -0.393110951966E+03    0.70052E+00   -0.73625E-01 12424   0.340E+00    0.107E+01
RMM:  15    -0.392432722848E+03    0.67823E+00   -0.57162E+00 11499   0.102E+01    0.680E+00
RMM:  16    -0.392366466265E+03    0.66257E-01   -0.26382E+00 15067   0.403E+00    0.475E+00
RMM:  17    -0.392261905461E+03    0.10456E+00   -0.57460E-01 14482   0.180E+00    0.379E+00
RMM:  18    -0.392173391204E+03    0.88514E-01   -0.15591E-01 12215   0.145E+00    0.247E+00
RMM:  19    -0.392121031001E+03    0.52360E-01   -0.19105E-01 14593   0.138E+00    0.150E+00
RMM:  20    -0.392110931324E+03    0.10100E-01   -0.16030E-01 13247   0.119E+00    0.881E-01
RMM:  21    -0.392105762884E+03    0.51684E-02   -0.40184E-02 12852   0.736E-01    0.652E-01
RMM:  22    -0.392102085270E+03    0.36776E-02   -0.25709E-02 16242   0.279E-01    0.346E-01
RMM:  23    -0.392100777524E+03    0.13077E-02   -0.66320E-03 15246   0.200E-01    0.223E-01
RMM:  24    -0.392100520542E+03    0.25698E-03   -0.34160E-03 14790   0.159E-01    0.179E-01
RMM:  25    -0.392100146741E+03    0.37380E-03   -0.16145E-03 14886   0.106E-01    0.165E-01
RMM:  26    -0.392100125597E+03    0.21145E-04   -0.85030E-04 14789   0.827E-02    0.133E-01
RMM:  27    -0.392100160870E+03   -0.35273E-04   -0.56713E-04 13648   0.860E-02    0.587E-02
RMM:  28    -0.392100501885E+03   -0.34101E-03   -0.45362E-04 15109   0.406E-02    0.530E-02
RMM:  29    -0.392100757271E+03   -0.25539E-03   -0.16703E-04 14409   0.343E-02    0.568E-02
RMM:  30    -0.392101351207E+03   -0.59394E-03   -0.28256E-04 14231   0.484E-02    0.971E-02
RMM:  31    -0.392101267832E+03    0.83375E-04   -0.22673E-04 11651   0.654E-02    0.166E-02
RMM:  32    -0.392101448833E+03   -0.18100E-03   -0.81907E-05 14506   0.150E-02    0.117E-02
RMM:  33    -0.392101537188E+03   -0.88355E-04   -0.83325E-06  9933   0.899E-03    0.144E-02
RMM:  34    -0.392101613204E+03   -0.76017E-04   -0.12834E-05 11867   0.780E-03    0.964E-03
RMM:  35    -0.392101675972E+03   -0.62767E-04   -0.57878E-06  9999   0.581E-03    0.112E-02
RMM:  36    -0.392101706766E+03   -0.30794E-04   -0.43873E-06  9250   0.788E-03    0.321E-03
RMM:  37    -0.392101761999E+03   -0.55233E-04   -0.75579E-06  9898   0.604E-03    0.667E-03
RMM:  38    -0.392101766813E+03   -0.48138E-05   -0.12471E-06  8075   0.366E-03    0.377E-03
RMM:  39    -0.392101771450E+03   -0.46372E-05   -0.70563E-07  7325   0.228E-03    0.286E-03
RMM:  40    -0.392101773446E+03   -0.19957E-05   -0.52038E-07  7079   0.273E-03    0.143E-03
RMM:  41    -0.392101774216E+03   -0.77013E-06   -0.28091E-07  6331   0.169E-03
   1 F= -.39210177E+03 E0= -.39211051E+03  d E =0.262209E-01
 augmentation electrons   21.079557419377192     
 soft         electrons   174.98972740255994     
 augmentation electrons   21.079557419377192     
 soft         electrons   174.98972740255994     
 augmentation electrons   21.079557419377192     
 soft         electrons   174.98972740255994     
 augmentation electrons   21.079557419377192     
 soft         electrons   174.98972740255994     
 augmentation electrons   21.079557419377192     
 soft         electrons   174.98972740255994     
 augmentation electrons   21.079557419377192     
 soft         electrons   174.98972740255994     
 augmentation electrons   21.079557419377192     
 soft         electrons   174.98972740255994     
 augmentation electrons   21.079557419377192     
 soft         electrons   174.98972740255994     
 augmentation electrons   21.079557419377192     
 soft         electrons   174.98972740255994     
 augmentation electrons   21.079557419377192     
 soft         electrons   174.98972740255994     
 augmentation electrons   21.079557419377192     
 soft         electrons   174.98972740255994     
 augmentation electrons   21.079557419377192     
 soft         electrons   174.98972740255994     
 augmentation electrons   21.079557419377192     
 soft         electrons   174.98972740255994     
 augmentation electrons   21.079557419377192     
 soft         electrons   174.98972740255994     
 augmentation electrons   21.079557419377192     
 soft         electrons   174.98972740255994     
 augmentation electrons   21.079557419377192     
 soft         electrons   174.98972740255994     
 augmentation electrons   21.079557419377192     
 soft         electrons   174.98972740255994     
 augmentation electrons   21.079557419377192     
 soft         electrons   174.98972740255994     
 augmentation electrons   21.079557419377192     
 soft         electrons   174.98972740255994     
 augmentation electrons   21.079557419377192     
 soft         electrons   174.98972740255994     
 augmentation electrons   21.079557419377192     
 soft         electrons   174.98972740255994     
 augmentation electrons   21.079557419377192     
 soft         electrons   174.98972740255994     
 augmentation electrons   21.079557419377192     
 soft         electrons   174.98972740255994     
 augmentation electrons   21.079557419377192     
 soft         electrons   174.98972740255994     
 augmentation electrons   21.079557419377192     
 soft         electrons   174.98972740255994     
 augmentation electrons   21.079557419377192     
 soft         electrons   174.98972740255994     
 augmentation electrons   21.079557419377192     
 soft         electrons   174.98972740255994     
 augmentation electrons   21.079557419377192     
 soft         electrons   174.98972740255994     
 augmentation electrons   21.079557419377192     
 soft         electrons   174.98972740255994     
 augmentation electrons   21.079557419377192     
 soft         electrons   174.98972740255994     
 augmentation electrons   21.079557419377192     
 soft         electrons   174.98972740255994     
 augmentation electrons   21.079557419377192     
 soft         electrons   174.98972740255994     
 augmentation electrons   21.079557419377192     
 soft         electrons   174.98972740255994     
 augmentation electrons   21.079557419377192     
 soft         electrons   174.98972740255994     
 augmentation electrons   21.079557419377192     
 soft         electrons   174.98972740255994     
 augmentation electrons   21.079557419377192     
 soft         electrons   174.98972740255994     
 augmentation electrons   21.079557419377192     
 soft         electrons   174.98972740255994     
 augmentation electrons   21.079557419377192     
 soft         electrons   174.98972740255994     
 augmentation electrons   21.079557419377192     
 soft         electrons   174.98972740255994     
 augmentation electrons   21.079557419377192     
 soft         electrons   174.98972740255994     
 augmentation electrons   21.079557419377192     
 soft         electrons   174.98972740255994     
 augmentation electrons   21.079557419377192     
 soft         electrons   174.98972740255994     
 augmentation electrons   21.079557419377192     
 soft         electrons   174.98972740255994     
 augmentation electrons   21.079557419377192     
 soft         electrons   174.98972740255994     
 augmentation electrons   21.079557419377192     
 soft         electrons   174.98972740255994     
 augmentation electrons   21.079557419377192     
 soft         electrons   174.98972740255994     
 augmentation electrons   21.079557419377192     
 soft         electrons   174.98972740255994     
 augmentation electrons   21.079557419377192     
 soft         electrons   174.98972740255994     
 augmentation electrons   21.079557419377192     
 soft         electrons   174.98972740255994     
 augmentation electrons   21.079557419377192     
 soft         electrons   174.98972740255994     
 augmentation electrons   21.079557419377192     
 soft         electrons   174.98972740255994     
 augmentation electrons   21.079557419377192     
 soft         electrons   174.98972740255994     
 augmentation electrons   21.079557419377192     
 soft         electrons   174.98972740255994     
 augmentation electrons   21.079557419377192     
 soft         electrons   174.98972740255994     
 total        electrons   196.06928482193712     
 total        electrons   196.06928482193712     
 total        electrons   196.06928482193712     
 total        electrons   196.06928482193712     
 total        electrons   196.06928482193712     
 total        electrons   196.06928482193712     
 total        electrons   196.06928482193712     
 total        electrons   196.06928482193712     
 total        electrons   196.06928482193712     
 total        electrons   196.06928482193712     
 total        electrons   196.06928482193712     
 total        electrons   196.06928482193712     
 total        electrons   196.06928482193712     
 total        electrons   196.06928482193712     
 total        electrons   196.06928482193712     
 total        electrons   196.06928482193712     
 total        electrons   196.06928482193712     
 total        electrons   196.06928482193712     
 total        electrons   196.06928482193712     
 total        electrons   196.06928482193712     
 total        electrons   196.06928482193712     
 total        electrons   196.06928482193712     
 total        electrons   196.06928482193712     
 total        electrons   196.06928482193712     
 total        electrons   196.06928482193712     
 total        electrons   196.06928482193712     
 total        electrons   196.06928482193712     
 total        electrons   196.06928482193712     
 total        electrons   196.06928482193712     
 total        electrons   196.06928482193712     
 total        electrons   196.06928482193712     
 total        electrons   196.06928482193712     
 total        electrons   196.06928482193712     
 total        electrons   196.06928482193712     
 total        electrons   196.06928482193712     
 total        electrons   196.06928482193712     
 total        electrons   196.06928482193712     
 total        electrons   196.06928482193712     
 total        electrons   196.06928482193712     
 total        electrons   196.06928482193712     
 total        electrons   196.06928482193712     
 total        electrons   196.06928482193712     
 total        electrons   196.06928482193712     
 total        electrons   196.06928482193712     
 total        electrons   196.06928482193712     
 total        electrons   196.06928482193712     
 total        electrons   196.06928482193712     
 total        electrons   196.06928482193712     
 total        electrons   196.06928482193712     
 total        electrons   196.06928482193712     
 total        electrons   196.06928482193712     
 total        electrons   196.06928482193712     
 total        electrons   196.06928482193712     
 total        electrons   196.06928482193712     
Note: The following floating-point exceptions are signalling: IEEE_OVERFLOW_FLAG
Note: The following floating-point exceptions are signalling: IEEE_OVERFLOW_FLAG
Note: The following floating-point exceptions are signalling: IEEE_OVERFLOW_FLAG
Note: The following floating-point exceptions are signalling: IEEE_OVERFLOW_FLAG
Note: The following floating-point exceptions are signalling: IEEE_OVERFLOW_FLAG
Note: The following floating-point exceptions are signalling: IEEE_OVERFLOW_FLAG
Note: The following floating-point exceptions are signalling: IEEE_OVERFLOW_FLAG
Note: The following floating-point exceptions are signalling: IEEE_OVERFLOW_FLAG
Note: The following floating-point exceptions are signalling: IEEE_OVERFLOW_FLAG
Note: The following floating-point exceptions are signalling: IEEE_OVERFLOW_FLAG
Note: The following floating-point exceptions are signalling: IEEE_OVERFLOW_FLAG
Note: The following floating-point exceptions are signalling: IEEE_OVERFLOW_FLAG
Note: The following floating-point exceptions are signalling: IEEE_OVERFLOW_FLAG
Note: The following floating-point exceptions are signalling: IEEE_OVERFLOW_FLAG
Note: The following floating-point exceptions are signalling: IEEE_OVERFLOW_FLAG
Note: The following floating-point exceptions are signalling: IEEE_OVERFLOW_FLAG
Note: The following floating-point exceptions are signalling: IEEE_OVERFLOW_FLAG
Note: The following floating-point exceptions are signalling: IEEE_OVERFLOW_FLAG
Note: The following floating-point exceptions are signalling: IEEE_OVERFLOW_FLAG
Note: The following floating-point exceptions are signalling: IEEE_OVERFLOW_FLAG
Note: The following floating-point exceptions are signalling: IEEE_OVERFLOW_FLAG
Note: The following floating-point exceptions are signalling: IEEE_OVERFLOW_FLAG
Note: The following floating-point exceptions are signalling: IEEE_OVERFLOW_FLAG
Note: The following floating-point exceptions are signalling: IEEE_OVERFLOW_FLAG
Note: The following floating-point exceptions are signalling: IEEE_OVERFLOW_FLAG
Note: The following floating-point exceptions are signalling: IEEE_OVERFLOW_FLAG
Note: The following floating-point exceptions are signalling: IEEE_OVERFLOW_FLAG
Note: The following floating-point exceptions are signalling: IEEE_OVERFLOW_FLAG
Note: The following floating-point exceptions are signalling: IEEE_OVERFLOW_FLAG
Note: The following floating-point exceptions are signalling: IEEE_OVERFLOW_FLAG
Note: The following floating-point exceptions are signalling: IEEE_OVERFLOW_FLAG
Note: The following floating-point exceptions are signalling: IEEE_OVERFLOW_FLAG
Note: The following floating-point exceptions are signalling: IEEE_OVERFLOW_FLAG
Note: The following floating-point exceptions are signalling: IEEE_OVERFLOW_FLAG
Note: The following floating-point exceptions are signalling: IEEE_OVERFLOW_FLAG
Note: The following floating-point exceptions are signalling: IEEE_OVERFLOW_FLAG
Note: The following floating-point exceptions are signalling: IEEE_OVERFLOW_FLAG
Note: The following floating-point exceptions are signalling: IEEE_OVERFLOW_FLAG
Note: The following floating-point exceptions are signalling: IEEE_OVERFLOW_FLAG
Note: The following floating-point exceptions are signalling: IEEE_OVERFLOW_FLAG
Note: The following floating-point exceptions are signalling: IEEE_OVERFLOW_FLAG
Note: The following floating-point exceptions are signalling: IEEE_OVERFLOW_FLAG
Note: The following floating-point exceptions are signalling: IEEE_OVERFLOW_FLAG
Note: The following floating-point exceptions are signalling: IEEE_OVERFLOW_FLAG
Note: The following floating-point exceptions are signalling: IEEE_OVERFLOW_FLAG
Note: The following floating-point exceptions are signalling: IEEE_OVERFLOW_FLAG
Note: The following floating-point exceptions are signalling: IEEE_OVERFLOW_FLAG
Note: The following floating-point exceptions are signalling: IEEE_OVERFLOW_FLAG
Note: The following floating-point exceptions are signalling: IEEE_OVERFLOW_FLAG
Note: The following floating-point exceptions are signalling: IEEE_OVERFLOW_FLAG
Note: The following floating-point exceptions are signalling: IEEE_OVERFLOW_FLAG
Note: The following floating-point exceptions are signalling: IEEE_OVERFLOW_FLAG
Note: The following floating-point exceptions are signalling: IEEE_OVERFLOW_FLAG
Note: The following floating-point exceptions are signalling: IEEE_OVERFLOW_FLAG
