    3    3   60    1
  0.8144830E+01  0.3039000E-09  0.3039000E-09  0.3055000E-09  0.5000000E-15
   1.0000000000000000E-004
  CAR 
 Name                                    
     12    216     10

  0.3742002E-15  0.3742002E-15  0.3742002E-15  0.2962963E-03
    1       -5.348393   1.000000
    2        4.748503   1.000000
    3        4.748505   1.000000
    4        5.120510   1.000000
    5        6.625271   1.000000
    6        9.836113   1.000000
    7        9.836114   1.000000
    8       12.906480  -0.000000
    9       12.907245  -0.000000
   10       14.502003   0.000000

  0.6666667E-01  0.3766815E-15  0.3742002E-15  0.1777778E-02
    1       -5.256532   1.000000
    2        4.533031   1.000000
    3        4.792654   1.000000
    4        5.181741   1.000000
    5        6.359439   1.000000
    6        9.795446   1.000000
    7       10.190634   0.993152
    8       12.312839  -0.000000
    9       12.404979  -0.000000
   10       15.042615   0.000000

  0.1333333E+00  0.3754153E-15  0.3742002E-15  0.1777778E-02
    1       -4.985544   1.000000
    2        3.959837   1.000000
    3        4.909214   1.000000
    4        5.333070   1.000000
    5        5.795018   1.000000
    6        9.682661   1.000000
    7       10.989629  -0.000000
    8       11.399666  -0.000000
    9       11.716308  -0.000000
   10       15.797187   0.000000

  0.2000000E+00  0.3870416E-15  0.3742002E-15  0.1777778E-02
    1       -4.548603   1.000000
    2        3.174694   1.000000
    3        5.054613   1.000000
    4        5.198438   1.000000
    5        5.464837   1.000000
    6        9.522071   1.000000
    7       10.732912  -0.000000
    8       11.236837  -0.000000
    9       11.845544  -0.000000
   10       16.329305   0.000000

  0.2666667E+00  0.4120044E-15  0.3742002E-15  0.1777778E-02
    1       -3.965788   1.000000
    2        2.289580   1.000000
    3        4.677538   1.000000
    4        5.176177   1.000000
    5        5.428052   1.000000
    6        9.345185   1.000000
    7       10.573487  -0.000085
    8       11.027770  -0.000000
    9       12.396585  -0.000000
   10       16.509253   0.000000

  0.3333333E+00  0.4025434E-15  0.3742002E-15  0.1777778E-02
    1       -3.262795   1.000000
    2        1.364082   1.000000
    3        4.271793   1.000000
    4        5.195835   1.000000
    5        5.241945   1.000000
    6        9.182824   1.000000
    7       10.974281  -0.000000
    8       11.058038  -0.000000
    9       12.453807  -0.000000
   10       16.811521   0.000000

  0.4000000E+00  0.3732510E-15  0.3742002E-15  0.1777778E-02
    1       -2.473917   1.000000
    2        0.433367   1.000000
    3        3.996721   1.000000
    4        4.915316   1.000000
    5        5.258886   1.000000
    6        9.060201   1.000000
    7       11.216617  -0.000000
    8       11.718452  -0.000000
    9       12.268643  -0.000000
   10       16.813185   0.000000

  0.4666667E+00  0.3915456E-15  0.3742002E-15  0.1777778E-02
    1       -1.689034   1.000000
    2       -0.420188   1.000000
    3        3.858183   1.000000
    4        4.738487   1.000000
    5        5.256126   1.000000
    6        8.994566   1.000000
    7       11.351960  -0.000000
    8       12.120384  -0.000000
    9       12.379550  -0.000000
   10       16.652773   0.000000

  0.6666667E-01  0.6666667E-01  0.3742002E-15  0.1777778E-02
    1       -5.075055   1.000000
    2        4.154382   1.000000
    3        4.841865   1.000000
    4        5.304344   1.000000
    5        5.958961   1.000000
    6        9.696072   1.000000
    7       10.778445  -0.000000
    8       11.678531  -0.000000
    9       11.835657  -0.000000
   10       15.708235   0.000000

  0.1333333E+00  0.6666667E-01  0.3742002E-15  0.3555556E-02
    1       -4.720779   1.000000
    2        3.509841   1.000000
    3        4.861940   1.000000
    4        5.415405   1.000000
    5        5.529722   1.000000
    6        9.498641   1.000000
    7       10.907165  -0.000000
    8       11.377976  -0.000000
    9       11.655669  -0.000000
   10       16.347593   0.000000

  0.2000000E+00  0.6666667E-01  0.3742002E-15  0.3555556E-02
    1       -4.209915   1.000000
    2        2.712179   1.000000
    3        4.787434   1.000000
    4        4.895632   1.000000
    5        5.769538   1.000000
    6        9.244451   1.000000
    7       10.375312  -0.028337
    8       11.226583  -0.000000
    9       12.477528  -0.000000
   10       16.408047   0.000000

  0.2666667E+00  0.6666667E-01  0.3742002E-15  0.3555556E-02
    1       -3.564689   1.000000
    2        1.837295   1.000000
    3        4.466718   1.000000
    4        4.593721   1.000000
    5        5.915421   1.000000
    6        8.978033   1.000000
    7       10.276456   0.461270
    8       11.387634  -0.000000
    9       12.887299  -0.000000
   10       16.560743   0.000000

  0.3333333E+00  0.6666667E-01  0.3742002E-15  0.3555556E-02
    1       -2.813232   1.000000
    2        0.926129   1.000000
    3        4.153639   1.000000
    4        4.342279   1.000000
    5        5.937787   1.000000
    6        8.744777   1.000000
    7       10.572172  -0.000092
    8       11.764949  -0.000000
    9       12.862284  -0.000000
   10       17.016698   0.000000

  0.4000000E+00  0.6666667E-01  0.3742002E-15  0.3555556E-02
    1       -2.000571   1.000000
    2        0.020112   1.000000
    3        3.964654   1.000000
    4        4.138344   1.000000
    5        5.904511   1.000000
    6        8.585415   1.000000
    7       10.988350  -0.000000
    8       12.178060  -0.000000
    9       12.722981  -0.000000
   10       16.972635   0.000000

  0.4666667E+00  0.6666667E-01  0.3742002E-15  0.1777778E-02
    1       -1.406974   1.000000
    2       -0.604247   1.000000
    3        3.901614   1.000000
    4        4.061337   1.000000
    5        5.885311   1.000000
    6        8.528792   1.000000
    7       11.180570  -0.000000
    8       12.372024  -0.000000
    9       12.660807  -0.000000
   10       16.911850   0.000000

  0.1333333E+00  0.1333333E+00  0.3742002E-15  0.1777778E-02
    1       -4.291826   1.000000
    2        2.914648   1.000000
    3        4.575391   1.000000
    4        4.992859   1.000000
    5        5.906664   1.000000
    6        9.126321   1.000000
    7       10.292794   0.327185
    8       11.323504  -0.000000
    9       12.603612  -0.000000
   10       16.350055   0.000000

  0.2000000E+00  0.1333333E+00  0.3742002E-15  0.3555556E-02
    1       -3.716005   1.000000
    2        2.214652   1.000000
    3        4.149213   1.000000
    4        4.625314   1.000000
    5        6.329340   1.000000
    6        8.667450   1.000000
    7        9.826947   1.000000
    8       11.583128  -0.000000
    9       13.503799   0.000000
   10       16.118918   0.000000

  0.2666667E+00  0.1333333E+00  0.3742002E-15  0.3555556E-02
    1       -3.016217   1.000000
    2        1.425631   1.000000
    3        3.709688   1.000000
    4        4.350839   1.000000
    5        6.636987   1.000000
    6        8.218795   1.000000
    7        9.755753   1.000000
    8       11.951842  -0.000000
    9       13.922857   0.000000
   10       16.545787   0.000000

  0.3333333E+00  0.1333333E+00  0.3742002E-15  0.3555556E-02
    1       -2.222912   1.000000
    2        0.567685   1.000000
    3        3.367259   1.000000
    4        4.176085   1.000000
    5        6.740597   1.000000
    6        7.864210   1.000000
    7       10.125828   1.029373
    8       12.159134  -0.000000
    9       13.919144   0.000000
   10       17.432309   0.000000

  0.4000000E+00  0.1333333E+00  0.3742002E-15  0.3555556E-02
    1       -1.406236   1.000000
    2       -0.285596   1.000000
    3        3.184544   1.000000
    4        4.093145   1.000000
    5        6.738455   1.000000
    6        7.668636   1.000000
    7       10.626048  -0.000003
    8       12.078361  -0.000000
    9       13.852317   0.000000
   10       17.672399   0.000000

  0.2000000E+00  0.2000000E+00  0.3742002E-15  0.1777778E-02
    1       -3.083670   1.000000
    2        1.687685   1.000000
    3        3.402758   1.000000
    4        4.446604   1.000000
    5        6.965409   1.000000
    6        7.988165   1.000000
    7        9.372961   1.000000
    8       12.021437  -0.000000
    9       14.644237   0.000000
   10       15.965561   0.000000

  0.2666667E+00  0.2000000E+00  0.3742002E-15  0.3555556E-02
    1       -2.335676   1.000000
    2        1.069807   1.000000
    3        2.750125   1.000000
    4        4.371246   1.000000
    5        7.361968   1.000000
    6        7.476112   1.000000
    7        9.293581   1.000000
    8       12.182394  -0.000000
    9       15.208310   0.000000
   10       16.493946   0.000000

  0.3333333E+00  0.2000000E+00  0.3742002E-15  0.3555556E-02
    1       -1.505435   1.000000
    2        0.305257   1.000000
    3        2.348256   1.000000
    4        4.369960   1.000000
    5        6.911043   1.000000
    6        7.639224   1.000000
    7        9.759674   1.000000
    8       11.879468  -0.000000
    9       15.198162   0.000000
   10       17.469384   0.000000

  0.4000000E+00  0.2000000E+00  0.3742002E-15  0.1777778E-02
    1       -0.789830   1.000000
    2       -0.397988   1.000000
    3        2.220355   1.000000
    4        4.382058   1.000000
    5        6.743394   1.000000
    6        7.644610   1.000000
    7       10.192983   0.987156
    8       11.525470  -0.000000
    9       15.170474   0.000000
   10       17.917731   0.000000

  0.2666667E+00  0.2666667E+00  0.3742002E-15  0.1777778E-02
    1       -1.546344   1.000000
    2        0.716023   1.000000
    3        1.862129   1.000000
    4        4.529508   1.000000
    5        6.582431   1.000000
    6        8.338798   1.000000
    7        9.040931   1.000000
    8       11.819968  -0.000000
    9       16.372039   0.000000
   10       16.558073   0.000000

  0.3333333E+00  0.2666667E+00  0.3742002E-15  0.3555556E-02
    1       -0.689137   1.000000
    2        0.144677   1.000000
    3        1.342344   1.000000
    4        4.747219   1.000000
    5        6.038187   1.000000
    6        8.601308   1.000000
    7        9.518776   1.000000
    8       11.102903  -0.000000
    9       16.386202   0.000000
   10       17.417301   0.000000

  0.3333333E+00  0.3333333E+00  0.3742002E-15  0.5925926E-03
    1        0.031225   1.000000
    2        0.031227   1.000000
    3        0.616914   1.000000
    4        5.307353   1.000000
    5        5.307355   1.000000
    6        9.340653   1.000000
    7        9.340654   1.000000
    8       10.485436  -0.005034
    9       17.146680   0.000000
   10       17.146680   0.000000

  0.3742002E-15  0.3742002E-15  0.6666667E-01  0.5925926E-03
    1       -5.276667   1.000000
    2        4.799219   1.000000
    3        4.805471   1.000000
    4        4.805474   1.000000
    5        6.898971   1.000000
    6        9.595028   1.000000
    7        9.595029   1.000000
    8       12.738706  -0.000000
    9       12.738709  -0.000000
   10       15.180600   0.000000

  0.6666667E-01  0.3766815E-15  0.6666667E-01  0.3555556E-02
    1       -5.185927   1.000000
    2        4.583853   1.000000
    3        4.840106   1.000000
    4        4.843633   1.000000
    5        6.627471   1.000000
    6        9.538322   1.000000
    7        9.945323   1.000020
    8       12.326504  -0.000000
    9       12.416637  -0.000000
   10       15.226845   0.000000

  0.1333333E+00  0.3754153E-15  0.6666667E-01  0.3555556E-02
    1       -4.918399   1.000000
    2        3.991191   1.000000
    3        4.911368   1.000000
    4        4.939705   1.000000
    5        6.124926   1.000000
    6        9.403209   1.000000
    7       10.537114  -0.000571
    8       11.781864  -0.000000
    9       11.903065  -0.000000
   10       15.763165   0.000000

  0.2000000E+00  0.3870416E-15  0.6666667E-01  0.3555556E-02
    1       -4.487385   1.000000
    2        3.177513   1.000000
    3        4.852970   1.000000
    4        5.045697   1.000000
    5        5.734778   1.000000
    6        9.274213   1.000000
    7       10.524762  -0.001017
    8       11.503492  -0.000000
    9       12.060410  -0.000000
   10       15.983304   0.000000

  0.2666667E+00  0.4120044E-15  0.6666667E-01  0.3555556E-02
    1       -3.912938   1.000000
    2        2.265724   1.000000
    3        4.591022   1.000000
    4        5.109163   1.000000
    5        5.486159   1.000000
    6        9.221138   1.000000
    7       10.481489  -0.005788
    8       11.270040  -0.000000
    9       12.494402  -0.000000
   10       16.134812   0.000000

  0.3333333E+00  0.4025434E-15  0.6666667E-01  0.3555556E-02
    1       -3.219892   1.000000
    2        1.322013   1.000000
    3        4.297022   1.000000
    4        5.111506   1.000000
    5        5.207836   1.000000
    6        9.236856   1.000000
    7       10.846353  -0.000000
    8       11.209676  -0.000000
    9       12.545366  -0.000000
   10       16.711810   0.000000

  0.4000000E+00  0.3732510E-15  0.6666667E-01  0.3555556E-02
    1       -2.438816   1.000000
    2        0.380774   1.000000
    3        4.080297   1.000000
    4        4.925392   1.000000
    5        5.078116   1.000000
    6        9.264386   1.000000
    7       11.281623  -0.000000
    8       11.367432  -0.000000
    9       12.559453  -0.000000
   10       16.794310   0.000000

  0.4666667E+00  0.3915456E-15  0.6666667E-01  0.3555556E-02
    1       -1.639546   1.000000
    2       -0.495747   1.000000
    3        3.969884   1.000000
    4        4.750799   1.000000
    5        5.048782   1.000000
    6        9.275841   1.000000
    7       11.372270  -0.000000
    8       11.572846  -0.000000
    9       12.874491  -0.000000
   10       16.455940   0.000000

  0.6666667E-01  0.6666667E-01  0.6666667E-01  0.3555556E-02
    1       -5.006754   1.000000
    2        4.196989   1.000000
    3        4.877391   1.000000
    4        4.897001   1.000000
    5        6.279847   1.000000
    6        9.386712   1.000000
    7       10.480020  -0.006091
    8       11.824991  -0.000000
    9       12.057479  -0.000000
   10       15.793790   0.000000

  0.1333333E+00  0.6666667E-01  0.6666667E-01  0.7111111E-02
    1       -4.657196   1.000000
    2        3.534838   1.000000
    3        4.832498   1.000000
    4        4.920520   1.000000
    5        5.991462   1.000000
    6        9.125127   1.000000
    7       10.861840  -0.000000
    8       11.386191  -0.000000
    9       12.004247  -0.000000
   10       16.190242   0.000000

  0.2000000E+00  0.6666667E-01  0.6666667E-01  0.7111111E-02
    1       -4.153604   1.000000
    2        2.709844   1.000000
    3        4.612013   1.000000
    4        4.837941   1.000000
    5        5.936662   1.000000
    6        8.900463   1.000000
    7       10.621310  -0.000005
    8       11.290766  -0.000000
    9       12.561441  -0.000000
   10       16.082671   0.000000

  0.2666667E+00  0.6666667E-01  0.6666667E-01  0.7111111E-02
    1       -3.517911   1.000000
    2        1.809658   1.000000
    3        4.334409   1.000000
    4        4.642169   1.000000
    5        5.912330   1.000000
    6        8.826179   1.000000
    7       10.549193  -0.000314
    8       11.377029  -0.000000
    9       12.906897  -0.000000
   10       16.326426   0.000000

  0.3333333E+00  0.6666667E-01  0.6666667E-01  0.7111111E-02
    1       -2.776553   1.000000
    2        0.882376   1.000000
    3        4.118899   1.000000
    4        4.386923   1.000000
    5        5.809502   1.000000
    6        8.854724   1.000000
    7       10.732704  -0.000000
    8       11.642190  -0.000000
    9       12.925705  -0.000000
   10       16.867612   0.000000

  0.4000000E+00  0.6666667E-01  0.6666667E-01  0.7111111E-02
    1       -1.966907   1.000000
    2       -0.035559   1.000000
    3        4.009222   1.000000
    4        4.159356   1.000000
    5        5.699016   1.000000
    6        8.867909   1.000000
    7       11.046423  -0.000000
    8       11.866114  -0.000000
    9       12.980806  -0.000000
   10       16.783324   0.000000

  0.4666667E+00  0.6666667E-01  0.6666667E-01  0.3555556E-02
    1       -1.333784   1.000000
    2       -0.704099   1.000000
    3        4.010111   1.000000
    4        4.037008   1.000000
    5        5.654407   1.000000
    6        8.864866   1.000000
    7       11.206667  -0.000000
    8       11.918309  -0.000000
    9       13.075652   0.000000
   10       16.632289   0.000000

  0.1333333E+00  0.1333333E+00  0.6666667E-01  0.3555556E-02
    1       -4.234391   1.000000
    2        2.935388   1.000000
    3        4.426933   1.000000
    4        4.831109   1.000000
    5        6.189591   1.000000
    6        8.630620   1.000000
    7       10.775200  -0.000000
    8       11.253437  -0.000000
    9       12.659302  -0.000000
   10       16.163699   0.000000

  0.2000000E+00  0.1333333E+00  0.6666667E-01  0.7111111E-02
    1       -3.667370   1.000000
    2        2.217038   1.000000
    3        3.970280   1.000000
    4        4.641806   1.000000
    5        6.486773   1.000000
    6        8.211564   1.000000
    7       10.353434   0.006069
    8       11.563735  -0.000000
    9       13.447576   0.000000
   10       15.963979   0.000000

  0.2666667E+00  0.1333333E+00  0.6666667E-01  0.7111111E-02
    1       -2.978484   1.000000
    2        1.403045   1.000000
    3        3.587094   1.000000
    4        4.426869   1.000000
    5        6.558190   1.000000
    6        8.114897   1.000000
    7       10.151336   1.035399
    8       11.911548  -0.000000
    9       13.836075   0.000000
   10       16.345759   0.000000

  0.3333333E+00  0.1333333E+00  0.6666667E-01  0.7111111E-02
    1       -2.195429   1.000000
    2        0.528127   1.000000
    3        3.312283   1.000000
    4        4.263249   1.000000
    5        6.391777   1.000000
    6        8.213814   1.000000
    7       10.315831   0.164877
    8       12.089281  -0.000000
    9       13.881095   0.000000
   10       16.944832   0.000000

  0.4000000E+00  0.1333333E+00  0.6666667E-01  0.7111111E-02
    1       -1.370984   1.000000
    2       -0.345570   1.000000
    3        3.167801   1.000000
    4        4.181127   1.000000
    5        6.248806   1.000000
    6        8.248467   1.000000
    7       10.696584  -0.000000
    8       12.006214  -0.000000
    9       13.865645   0.000000
   10       17.165424   0.000000

  0.2000000E+00  0.2000000E+00  0.6666667E-01  0.3555556E-02
    1       -3.045585   1.000000
    2        1.687721   1.000000
    3        3.262494   1.000000
    4        4.494993   1.000000
    5        7.137541   1.000000
    6        7.516248   1.000000
    7        9.918217   1.000003
    8       12.001411  -0.000000
    9       14.482875   0.000000
   10       15.843175   0.000000

  0.2666667E+00  0.2000000E+00  0.6666667E-01  0.7111111E-02
    1       -2.310430   1.000000
    2        1.051729   1.000000
    3        2.678181   1.000000
    4        4.423368   1.000000
    5        6.858161   1.000000
    6        7.822685   1.000000
    7        9.694729   1.000000
    8       12.160437  -0.000000
    9       15.051282   0.000000
   10       16.299305   0.000000

  0.3333333E+00  0.2000000E+00  0.6666667E-01  0.7111111E-02
    1       -1.491543   1.000000
    2        0.271081   1.000000
    3        2.330830   1.000000
    4        4.422109   1.000000
    5        6.422785   1.000000
    6        8.172536   1.000000
    7        9.938316   1.000013
    8       11.877964  -0.000000
    9       15.098071   0.000000
   10       17.131309   0.000000

  0.4000000E+00  0.2000000E+00  0.6666667E-01  0.3555556E-02
    1       -0.736888   1.000000
    2       -0.479708   1.000000
    3        2.220931   1.000000
    4        4.435516   1.000000
    5        6.259479   1.000000
    6        8.235061   1.000000
    7       10.285482   0.386014
    8       11.550222  -0.000000
    9       15.086514   0.000000
   10       17.504503   0.000000

  0.2666667E+00  0.2666667E+00  0.6666667E-01  0.3555556E-02
    1       -1.537267   1.000000
    2        0.691749   1.000000
    3        1.840175   1.000000
    4        4.555874   1.000000
    5        6.330377   1.000000
    6        8.484765   1.000000
    7        9.408533   1.000000
    8       11.828818  -0.000000
    9       16.265593   0.000000
   10       16.320971   0.000000

  0.3333333E+00  0.2666667E+00  0.6666667E-01  0.7111111E-02
    1       -0.698624   1.000000
    2        0.112962   1.000000
    3        1.360223   1.000000
    4        4.753719   1.000000
    5        5.854428   1.000000
    6        8.877891   1.000000
    7        9.687733   1.000000
    8       11.145961  -0.000000
    9       16.272059   0.000000
   10       17.217648   0.000000

  0.3333333E+00  0.3333333E+00  0.6666667E-01  0.1185185E-02
    1       -0.022051   1.000000
    2       -0.022048   1.000000
    3        0.704593   1.000000
    4        5.244834   1.000000
    5        5.244836   1.000000
    6        9.541650   1.000000
    7        9.541651   1.000000
    8       10.531257  -0.000754
    9       17.016994   0.000000
   10       17.016995   0.000000

  0.3742002E-15  0.3742002E-15  0.1333333E+00  0.5925926E-03
    1       -5.065703   1.000000
    2        4.121199   1.000000
    3        4.975986   1.000000
    4        4.975988   1.000000
    5        7.452565   1.000000
    6        9.039719   1.000000
    7        9.039721   1.000000
    8       12.270287  -0.000000
    9       12.270290  -0.000000
   10       15.113521   0.000000

  0.6666667E-01  0.3766815E-15  0.1333333E+00  0.3555556E-02
    1       -4.978508   1.000000
    2        4.154593   1.000000
    3        4.736350   1.000000
    4        4.994105   1.000000
    5        7.090145   1.000000
    6        8.970874   1.000000
    7        9.455284   1.000000
    8       12.115971  -0.000000
    9       12.229876  -0.000000
   10       15.429579   0.000000

  0.1333333E+00  0.3754153E-15  0.1333333E+00  0.3555556E-02
    1       -4.721809   1.000000
    2        4.010018   1.000000
    3        4.320726   1.000000
    4        5.023805   1.000000
    5        6.525308   1.000000
    6        8.851425   1.000000
    7        9.995313   1.000326
    8       12.021408  -0.000000
    9       12.116079  -0.000000
   10       15.847665   0.000000

  0.2000000E+00  0.3870416E-15  0.1333333E+00  0.3555556E-02
    1       -4.309510   1.000000
    2        3.159966   1.000000
    3        4.375018   1.000000
    4        5.009421   1.000000
    5        6.032047   1.000000
    6        8.844093   1.000000
    7       10.132398   1.031962
    8       11.952471  -0.000000
    9       12.412878  -0.000000
   10       15.623213   0.000000

  0.2666667E+00  0.4120044E-15  0.1333333E+00  0.3555556E-02
    1       -3.761752   1.000000
    2        2.197580   1.000000
    3        4.393837   1.000000
    4        4.918551   1.000000
    5        5.607263   1.000000
    6        9.035222   1.000000
    7       10.227368   0.838450
    8       11.772867  -0.000000
    9       12.804529  -0.000000
   10       15.620033   0.000000

  0.3333333E+00  0.4025434E-15  0.1333333E+00  0.3555556E-02
    1       -3.101589   1.000000
    2        1.224633   1.000000
    3        4.351023   1.000000
    4        4.778888   1.000000
    5        5.232635   1.000000
    6        9.378337   1.000000
    7       10.528817  -0.000844
    8       11.611212  -0.000000
    9       12.854596  -0.000000
   10       16.101611   0.000000

  0.4000000E+00  0.3732510E-15  0.1333333E+00  0.3555556E-02
    1       -2.351990   1.000000
    2        0.273020   1.000000
    3        4.294321   1.000000
    4        4.647709   1.000000
    5        4.934067   1.000000
    6        9.738672   1.000000
    7       10.847849  -0.000000
    8       11.494434  -0.000000
    9       12.990765  -0.000000
   10       16.355143   0.000000

  0.4666667E+00  0.3915456E-15  0.1333333E+00  0.3555556E-02
    1       -1.537448   1.000000
    2       -0.639471   1.000000
    3        4.261529   1.000000
    4        4.570885   1.000000
    5        4.764117   1.000000
    6        9.966768   1.000070
    7       10.965913  -0.000000
    8       11.436380  -0.000000
    9       13.376920   0.000000
   10       16.032005   0.000000

  0.6666667E-01  0.6666667E-01  0.1333333E+00  0.3555556E-02
    1       -4.806526   1.000000
    2        4.199651   1.000000
    3        4.321480   1.000000
    4        4.981270   1.000000
    5        6.728837   1.000000
    6        8.761876   1.000000
    7       10.002597   1.000469
    8       11.883751  -0.000000
    9       12.234527  -0.000000
   10       15.969614   0.000000

  0.1333333E+00  0.6666667E-01  0.1333333E+00  0.7111111E-02
    1       -4.471840   1.000000
    2        3.589182   1.000000
    3        4.243936   1.000000
    4        4.898279   1.000000
    5        6.444655   1.000000
    6        8.480572   1.000000
    7       10.465962  -0.009632
    8       11.737826  -0.000000
    9       12.380086  -0.000000
   10       15.992677   0.000000

  0.2000000E+00  0.6666667E-01  0.1333333E+00  0.7111111E-02
    1       -3.991236   1.000000
    2        2.691108   1.000000
    3        4.209859   1.000000
    4        4.778541   1.000000
    5        6.193072   1.000000
    6        8.423936   1.000000
    7       10.597364  -0.000021
    8       11.690958  -0.000000
    9       12.803091  -0.000000
   10       15.673094   0.000000

  0.2666667E+00  0.6666667E-01  0.1333333E+00  0.7111111E-02
    1       -3.386223   1.000000
    2        1.738716   1.000000
    3        4.110000   1.000000
    4        4.636443   1.000000
    5        5.867194   1.000000
    6        8.684891   1.000000
    7       10.777688  -0.000000
    8       11.583766  -0.000000
    9       13.072961   0.000000
   10       15.830684   0.000000

  0.3333333E+00  0.6666667E-01  0.1333333E+00  0.7111111E-02
    1       -2.679773   1.000000
    2        0.786474   1.000000
    3        4.009932   1.000000
    4        4.475910   1.000000
    5        5.537934   1.000000
    6        9.113517   1.000000
    7       11.040106  -0.000000
    8       11.486754  -0.000000
    9       13.138064   0.000000
   10       16.290861   0.000000

  0.4000000E+00  0.6666667E-01  0.1333333E+00  0.7111111E-02
    1       -1.894238   1.000000
    2       -0.142374   1.000000
    3        3.947026   1.000000
    4        4.344144   1.000000
    5        5.303789   1.000000
    6        9.475675   1.000000
    7       11.219488  -0.000000
    8       11.442806  -0.000000
    9       13.342723   0.000000
   10       16.303495   0.000000

  0.4666667E+00  0.6666667E-01  0.1333333E+00  0.3555556E-02
    1       -1.119882   1.000000
    2       -0.963537   1.000000
    3        3.926775   1.000000
    4        4.293382   1.000000
    5        5.220031   1.000000
    6        9.608492   1.000000
    7       11.281924  -0.000000
    8       11.426272  -0.000000
    9       13.518617   0.000000
   10       16.134485   0.000000

  0.1333333E+00  0.1333333E+00  0.1333333E+00  0.3555556E-02
    1       -4.068402   1.000000
    2        2.993783   1.000000
    3        3.950260   1.000000
    4        4.728957   1.000000
    5        6.700759   1.000000
    6        7.871147   1.000000
    7       11.044418  -0.000000
    8       11.421666  -0.000000
    9       12.835526  -0.000000
   10       15.902917   0.000000

  0.2000000E+00  0.1333333E+00  0.1333333E+00  0.7111111E-02
    1       -3.529300   1.000000
    2        2.219883   1.000000
    3        3.607878   1.000000
    4        4.633106   1.000000
    5        6.718609   1.000000
    6        7.702740   1.000000
    7       11.108533  -0.000000
    8       11.510141  -0.000000
    9       13.411482   0.000000
   10       15.659640   0.000000

  0.2666667E+00  0.1333333E+00  0.1333333E+00  0.7111111E-02
    1       -2.875876   1.000000
    2        1.346976   1.000000
    3        3.355439   1.000000
    4        4.531724   1.000000
    5        6.257744   1.000000
    6        8.208861   1.000000
    7       10.926309  -0.000000
    8       11.784047  -0.000000
    9       13.738254   0.000000
   10       15.920444   0.000000

  0.3333333E+00  0.1333333E+00  0.1333333E+00  0.7111111E-02
    1       -2.130642   1.000000
    2        0.445210   1.000000
    3        3.192827   1.000000
    4        4.446052   1.000000
    5        5.837185   1.000000
    6        8.793097   1.000000
    7       10.840868  -0.000000
    8       11.900441  -0.000000
    9       13.853482   0.000000
   10       16.372811   0.000000

  0.4000000E+00  0.1333333E+00  0.1333333E+00  0.7111111E-02
    1       -1.315624   1.000000
    2       -0.449185   1.000000
    3        3.111924   1.000000
    4        4.404635   1.000000
    5        5.599343   1.000000
    6        9.149868   1.000000
    7       10.908911  -0.000000
    8       11.840658  -0.000000
    9       13.922732   0.000000
   10       16.538304   0.000000

  0.2000000E+00  0.2000000E+00  0.1333333E+00  0.3555556E-02
    1       -2.941044   1.000000
    2        1.685252   1.000000
    3        2.972738   1.000000
    4        4.561458   1.000000
    5        6.787664   1.000000
    6        7.593695   1.000000
    7       10.836299  -0.000000
    8       11.923226  -0.000000
    9       14.205961   0.000000
   10       15.574006   0.000000

  0.2666667E+00  0.2000000E+00  0.1333333E+00  0.7111111E-02
    1       -2.247796   1.000000
    2        1.003942   1.000000
    3        2.530221   1.000000
    4        4.528496   1.000000
    5        6.227051   1.000000
    6        8.289315   1.000000
    7       10.543365  -0.000420
    8       12.092407  -0.000000
    9       14.744976   0.000000
   10       15.918830   0.000000
