   56   56    1    1
  0.1322101E+02  0.6042588E-09  0.6042559E-09  0.2341357E-08  0.5000000E-15
   1.0000000000000000E-004
  CAR 
 Name                                    
    198     41    132

  0.3742002E-15  0.3742002E-15  0.1262379E-14  0.1234568E-01
    1      -11.598443   1.000000
    2      -11.024620   1.000000
    3      -10.249813   1.000000
    4       -9.296275   1.000000
    5       -8.780879   1.000000
    6       -8.297142   1.000000
    7       -8.125456   1.000000
    8       -8.018553   1.000000
    9       -7.825295   1.000000
   10       -7.758468   1.000000
   11       -7.750909   1.000000
   12       -7.650115   1.000000
   13       -7.633876   1.000000
   14       -7.581107   1.000000
   15       -7.387185   1.000000
   16       -7.346465   1.000000
   17       -7.248631   1.000000
   18       -7.183104   1.000000
   19       -7.105039   1.000000
   20       -6.899039   1.000000
   21       -6.688370   1.000000
   22       -6.509912   1.000000
   23       -6.310605   1.000000
   24       -6.086157   1.000000
   25       -5.945960   1.000000
   26       -5.890528   1.000000
   27       -5.830423   1.000000
   28       -5.826658   1.000000
   29       -5.672261   1.000000
   30       -5.247970   1.000000
   31       -4.959114   1.000000
   32       -4.761304   1.000000
   33       -4.605262   1.000000
   34       -4.596106   1.000000
   35       -4.493437   1.000000
   36       -4.273641   1.000000
   37       -4.074704   1.000000
   38       -3.238943   1.000000
   39       -3.206834   1.000000
   40       -3.007779   1.000000
   41       -2.844830   1.000000
   42       -2.768468   1.000000
   43       -2.717308   1.000000
   44       -2.527956   1.000000
   45       -2.388120   1.000000
   46       -2.366445   1.000000
   47       -2.080776   1.000000
   48       -1.981099   1.000000
   49       -1.978251   1.000000
   50       -1.948127   1.000000
   51       -1.731007   1.000000
   52       -1.694801   1.000000
   53       -1.668121   1.000000
   54       -1.644351   1.000000
   55       -1.465751   1.000000
   56       -1.456550   1.000000
   57       -1.425581   1.000000
   58       -1.394458   1.000000
   59       -1.384754   1.000000
   60       -1.281454   1.000000
   61       -1.239402   1.000000
   62       -1.197564   1.000000
   63       -1.184607   1.000000
   64       -1.012051   1.000000
   65       -0.934129   1.000000
   66       -0.851916   1.000000
   67       -0.820421   1.000000
   68       -0.737054   1.000000
   69       -0.676470   1.000000
   70       -0.571736   1.000000
   71       -0.521251   1.000000
   72       -0.395048   1.000000
   73       -0.283296   1.000000
   74       -0.230975   1.000000
   75       -0.206129   1.000000
   76       -0.172541   1.000000
   77       -0.156938   1.000000
   78       -0.047126   1.000000
   79       -0.021000   1.000000
   80        0.173289   1.000000
   81        0.474027   1.000000
   82        0.527950   1.000000
   83        0.696709   1.000000
   84        0.889600   1.000000
   85        1.167151   1.000000
   86        1.291637   1.000000
   87        1.350439   1.000000
   88        1.425793   1.000000
   89        1.453541   1.000000
   90        1.544033   1.000000
   91        1.576772   1.000000
   92        1.587573   1.000000
   93        1.597187   1.000000
   94        1.651105   1.000000
   95        1.778959   1.000002
   96        1.844011   1.000020
   97        2.206166   1.029738
   98        2.247077   1.035382
   99        2.744789  -0.035416
  100        2.800297  -0.026802
  101        2.810301  -0.024505
  102        2.916047  -0.005758
  103        3.014264  -0.000772
  104        3.212851  -0.000003
  105        3.223263  -0.000002
  106        3.258055  -0.000001
  107        3.332622  -0.000000
  108        3.474227  -0.000000
  109        3.517481  -0.000000
  110        3.563594  -0.000000
  111        3.619588  -0.000000
  112        3.706302  -0.000000
  113        3.745822  -0.000000
  114        3.784736  -0.000000
  115        3.813612  -0.000000
  116        3.835614  -0.000000
  117        3.908921  -0.000000
  118        3.946116  -0.000000
  119        3.994177  -0.000000
  120        4.069089  -0.000000
  121        4.093667  -0.000000
  122        4.203484  -0.000000
  123        4.276104  -0.000000
  124        4.308273  -0.000000
  125        4.838620  -0.000000
  126        5.042563  -0.000000
  127        5.140398  -0.000000
  128        5.892640  -0.000000
  129        6.105081  -0.000000
  130        6.212683  -0.000000
  131        6.412264  -0.000000
  132        6.507750  -0.000000

  0.1111111E+00  0.3867788E-15  0.1262378E-14  0.2469136E-01
    1      -11.541114   1.000000
    2      -10.971819   1.000000
    3      -10.207082   1.000000
    4       -9.265069   1.000000
    5       -8.745020   1.000000
    6       -8.353613   1.000000
    7       -8.334613   1.000000
    8       -8.239644   1.000000
    9       -8.153275   1.000000
   10       -7.949257   1.000000
   11       -7.926959   1.000000
   12       -7.818941   1.000000
   13       -7.789045   1.000000
   14       -7.655713   1.000000
   15       -7.264284   1.000000
   16       -7.120823   1.000000
   17       -7.084361   1.000000
   18       -6.875064   1.000000
   19       -6.803303   1.000000
   20       -6.785404   1.000000
   21       -6.684427   1.000000
   22       -6.467809   1.000000
   23       -6.171030   1.000000
   24       -6.102588   1.000000
   25       -5.972969   1.000000
   26       -5.871088   1.000000
   27       -5.859060   1.000000
   28       -5.686955   1.000000
   29       -5.592388   1.000000
   30       -5.208186   1.000000
   31       -4.930447   1.000000
   32       -4.566468   1.000000
   33       -4.537761   1.000000
   34       -4.465601   1.000000
   35       -4.322039   1.000000
   36       -4.180277   1.000000
   37       -3.937050   1.000000
   38       -3.234839   1.000000
   39       -3.212784   1.000000
   40       -2.971908   1.000000
   41       -2.849507   1.000000
   42       -2.829594   1.000000
   43       -2.773352   1.000000
   44       -2.591031   1.000000
   45       -2.435736   1.000000
   46       -2.413870   1.000000
   47       -2.300226   1.000000
   48       -2.088103   1.000000
   49       -2.023133   1.000000
   50       -1.926005   1.000000
   51       -1.835101   1.000000
   52       -1.724754   1.000000
   53       -1.688561   1.000000
   54       -1.661966   1.000000
   55       -1.508552   1.000000
   56       -1.497445   1.000000
   57       -1.453970   1.000000
   58       -1.426633   1.000000
   59       -1.372256   1.000000
   60       -1.319006   1.000000
   61       -1.279515   1.000000
   62       -1.212556   1.000000
   63       -1.175784   1.000000
   64       -1.092491   1.000000
   65       -0.993014   1.000000
   66       -0.902250   1.000000
   67       -0.832083   1.000000
   68       -0.800682   1.000000
   69       -0.651240   1.000000
   70       -0.632043   1.000000
   71       -0.557051   1.000000
   72       -0.411374   1.000000
   73       -0.362778   1.000000
   74       -0.298687   1.000000
   75       -0.250413   1.000000
   76       -0.109143   1.000000
   77       -0.081421   1.000000
   78       -0.005393   1.000000
   79        0.105118   1.000000
   80        0.161790   1.000000
   81        0.289877   1.000000
   82        0.499146   1.000000
   83        0.591828   1.000000
   84        0.693701   1.000000
   85        1.071653   1.000000
   86        1.114023   1.000000
   87        1.271475   1.000000
   88        1.398535   1.000000
   89        1.446510   1.000000
   90        1.482386   1.000000
   91        1.519147   1.000000
   92        1.537826   1.000000
   93        1.557835   1.000000
   94        1.700748   1.000000
   95        1.803496   1.000005
   96        1.932469   1.000246
   97        2.425797   0.779523
   98        2.489206   0.530930
   99        2.697127  -0.025439
  100        2.765155  -0.033628
  101        2.836432  -0.018567
  102        2.881640  -0.010091
  103        2.944033  -0.003448
  104        3.052717  -0.000301
  105        3.269623  -0.000000
  106        3.389466  -0.000000
  107        3.461044  -0.000000
  108        3.470783  -0.000000
  109        3.511302  -0.000000
  110        3.569032  -0.000000
  111        3.612050  -0.000000
  112        3.668007  -0.000000
  113        3.693577  -0.000000
  114        3.720836  -0.000000
  115        3.748028  -0.000000
  116        3.793250  -0.000000
  117        3.823310  -0.000000
  118        3.859085  -0.000000
  119        3.935340  -0.000000
  120        3.955217  -0.000000
  121        3.980658  -0.000000
  122        4.039912  -0.000000
  123        4.129107  -0.000000
  124        4.150356  -0.000000
  125        4.265997  -0.000000
  126        4.306976  -0.000000
  127        4.582662  -0.000000
  128        4.810237  -0.000000
  129        5.020103  -0.000000
  130        6.015760  -0.000000
  131        6.252372  -0.000000
  132        6.510210  -0.000000

  0.2222222E+00  0.3825705E-15  0.1262378E-14  0.2469136E-01
    1      -11.371103   1.000000
    2      -10.815546   1.000000
    3      -10.081467   1.000000
    4       -9.185775   1.000000
    5       -9.001197   1.000000
    6       -8.734533   1.000000
    7       -8.642938   1.000000
    8       -8.556473   1.000000
    9       -8.230649   1.000000
   10       -8.187611   1.000000
   11       -8.097664   1.000000
   12       -8.060107   1.000000
   13       -7.963383   1.000000
   14       -7.761788   1.000000
   15       -7.325009   1.000000
   16       -7.094814   1.000000
   17       -7.002623   1.000000
   18       -6.692295   1.000000
   19       -6.669018   1.000000
   20       -6.511946   1.000000
   21       -6.461232   1.000000
   22       -6.113154   1.000000
   23       -6.015429   1.000000
   24       -5.857495   1.000000
   25       -5.782886   1.000000
   26       -5.732126   1.000000
   27       -5.649242   1.000000
   28       -5.525017   1.000000
   29       -5.151140   1.000000
   30       -5.020609   1.000000
   31       -4.821414   1.000000
   32       -4.351824   1.000000
   33       -4.324960   1.000000
   34       -4.191493   1.000000
   35       -3.996067   1.000000
   36       -3.810690   1.000000
   37       -3.559241   1.000000
   38       -3.269376   1.000000
   39       -3.251380   1.000000
   40       -3.113975   1.000000
   41       -3.019958   1.000000
   42       -2.980370   1.000000
   43       -2.831150   1.000000
   44       -2.779300   1.000000
   45       -2.726879   1.000000
   46       -2.560166   1.000000
   47       -2.421585   1.000000
   48       -2.272772   1.000000
   49       -2.059229   1.000000
   50       -2.005533   1.000000
   51       -1.954766   1.000000
   52       -1.819174   1.000000
   53       -1.777233   1.000000
   54       -1.705133   1.000000
   55       -1.672956   1.000000
   56       -1.590830   1.000000
   57       -1.549691   1.000000
   58       -1.491115   1.000000
   59       -1.463031   1.000000
   60       -1.399791   1.000000
   61       -1.359044   1.000000
   62       -1.338761   1.000000
   63       -1.241747   1.000000
   64       -1.193365   1.000000
   65       -1.087826   1.000000
   66       -1.043510   1.000000
   67       -0.969687   1.000000
   68       -0.886438   1.000000
   69       -0.819204   1.000000
   70       -0.779261   1.000000
   71       -0.635970   1.000000
   72       -0.533475   1.000000
   73       -0.433701   1.000000
   74       -0.354115   1.000000
   75       -0.265916   1.000000
   76       -0.150631   1.000000
   77       -0.085543   1.000000
   78        0.007988   1.000000
   79        0.104166   1.000000
   80        0.174285   1.000000
   81        0.336419   1.000000
   82        0.403211   1.000000
   83        0.511459   1.000000
   84        0.695528   1.000000
   85        0.775442   1.000000
   86        0.880278   1.000000
   87        1.199514   1.000000
   88        1.264050   1.000000
   89        1.300383   1.000000
   90        1.432743   1.000000
   91        1.456538   1.000000
   92        1.478690   1.000000
   93        1.524424   1.000000
   94        1.618699   1.000000
   95        1.922507   1.000190
   96        2.015819   1.001763
   97        2.371938   0.930032
   98        2.502205   0.475959
   99        2.558923   0.249663
  100        2.726672  -0.034527
  101        2.871975  -0.011643
  102        3.064876  -0.000220
  103        3.137507  -0.000028
  104        3.165509  -0.000012
  105        3.284306  -0.000000
  106        3.311780  -0.000000
  107        3.380051  -0.000000
  108        3.408877  -0.000000
  109        3.448413  -0.000000
  110        3.460815  -0.000000
  111        3.517710  -0.000000
  112        3.608436  -0.000000
  113        3.651480  -0.000000
  114        3.669555  -0.000000
  115        3.705424  -0.000000
  116        3.732017  -0.000000
  117        3.812076  -0.000000
  118        3.873578  -0.000000
  119        3.927252  -0.000000
  120        3.953109  -0.000000
  121        3.981538  -0.000000
  122        4.012959  -0.000000
  123        4.072905  -0.000000
  124        4.104798  -0.000000
  125        4.196005  -0.000000
  126        4.291805  -0.000000
  127        4.380692  -0.000000
  128        4.416874  -0.000000
  129        4.555225  -0.000000
  130        4.768482  -0.000000
  131        4.927351  -0.000000
  132        6.215798  -0.000000

  0.3333333E+00  0.3885513E-15  0.1262378E-14  0.2469136E-01
    1      -11.095332   1.000000
    2      -10.562712   1.000000
    3       -9.881879   1.000000
    4       -9.635645   1.000000
    5       -9.278509   1.000000
    6       -9.045118   1.000000
    7       -8.890575   1.000000
    8       -8.457606   1.000000
    9       -8.362227   1.000000
   10       -8.296791   1.000000
   11       -8.238480   1.000000
   12       -8.169729   1.000000
   13       -8.083993   1.000000
   14       -7.800731   1.000000
   15       -7.556066   1.000000
   16       -7.413508   1.000000
   17       -7.266107   1.000000
   18       -6.492023   1.000000
   19       -6.483613   1.000000
   20       -6.174280   1.000000
   21       -6.024506   1.000000
   22       -5.971797   1.000000
   23       -5.802143   1.000000
   24       -5.774466   1.000000
   25       -5.689397   1.000000
   26       -5.433324   1.000000
   27       -4.997606   1.000000
   28       -4.865928   1.000000
   29       -4.732920   1.000000
   30       -4.641711   1.000000
   31       -4.488440   1.000000
   32       -4.099380   1.000000
   33       -4.045149   1.000000
   34       -3.885037   1.000000
   35       -3.772580   1.000000
   36       -3.669419   1.000000
   37       -3.497602   1.000000
   38       -3.471126   1.000000
   39       -3.401336   1.000000
   40       -3.370384   1.000000
   41       -3.323026   1.000000
   42       -3.306273   1.000000
   43       -3.044293   1.000000
   44       -2.709947   1.000000
   45       -2.598505   1.000000
   46       -2.587089   1.000000
   47       -2.431827   1.000000
   48       -2.299124   1.000000
   49       -2.268444   1.000000
   50       -2.209111   1.000000
   51       -2.098126   1.000000
   52       -2.010337   1.000000
   53       -1.969970   1.000000
   54       -1.926322   1.000000
   55       -1.819967   1.000000
   56       -1.770226   1.000000
   57       -1.673872   1.000000
   58       -1.630833   1.000000
   59       -1.587634   1.000000
   60       -1.544477   1.000000
   61       -1.476325   1.000000
   62       -1.447615   1.000000
   63       -1.379862   1.000000
   64       -1.354710   1.000000
   65       -1.308974   1.000000
   66       -1.217882   1.000000
   67       -1.074258   1.000000
   68       -0.967058   1.000000
   69       -0.856287   1.000000
   70       -0.836208   1.000000
   71       -0.710289   1.000000
   72       -0.604569   1.000000
   73       -0.535596   1.000000
   74       -0.421926   1.000000
   75       -0.263583   1.000000
   76       -0.237801   1.000000
   77       -0.131122   1.000000
   78       -0.039571   1.000000
   79        0.101342   1.000000
   80        0.144313   1.000000
   81        0.227465   1.000000
   82        0.469336   1.000000
   83        0.499697   1.000000
   84        0.731720   1.000000
   85        0.753975   1.000000
   86        0.908904   1.000000
   87        1.105863   1.000000
   88        1.185081   1.000000
   89        1.204864   1.000000
   90        1.315773   1.000000
   91        1.364519   1.000000
   92        1.465935   1.000000
   93        1.499414   1.000000
   94        1.630058   1.000000
   95        1.823937   1.000011
   96        2.142818   1.015671
   97        2.260174   1.035156
   98        2.319172   1.009034
   99        2.420054   0.798830
  100        2.631428   0.049333
  101        2.841302  -0.017518
  102        2.884831  -0.009612
  103        2.976206  -0.001801
  104        3.038940  -0.000426
  105        3.144491  -0.000023
  106        3.249678  -0.000001
  107        3.308524  -0.000000
  108        3.349735  -0.000000
  109        3.360217  -0.000000
  110        3.415802  -0.000000
  111        3.507521  -0.000000
  112        3.538951  -0.000000
  113        3.564925  -0.000000
  114        3.606828  -0.000000
  115        3.688398  -0.000000
  116        3.789343  -0.000000
  117        3.817893  -0.000000
  118        3.867903  -0.000000
  119        3.930639  -0.000000
  120        3.954428  -0.000000
  121        4.007345  -0.000000
  122        4.070014  -0.000000
  123        4.110032  -0.000000
  124        4.131237  -0.000000
  125        4.223777  -0.000000
  126        4.312839  -0.000000
  127        4.370438  -0.000000
  128        4.433646  -0.000000
  129        4.506337  -0.000000
  130        4.635961  -0.000000
  131        4.799940  -0.000000
  132        5.073686  -0.000000

  0.4444444E+00  0.3777319E-15  0.1262376E-14  0.2469136E-01
    1      -10.740639   1.000000
    2      -10.242499   1.000000
    3      -10.153687   1.000000
    4       -9.778427   1.000000
    5       -9.585124   1.000000
    6       -9.279986   1.000000
    7       -8.898299   1.000000
    8       -8.457991   1.000000
    9       -8.369608   1.000000
   10       -8.334017   1.000000
   11       -8.232027   1.000000
   12       -8.157035   1.000000
   13       -8.123046   1.000000
   14       -7.822825   1.000000
   15       -7.806542   1.000000
   16       -7.767668   1.000000
   17       -7.314366   1.000000
   18       -6.454038   1.000000
   19       -6.433196   1.000000
   20       -6.102859   1.000000
   21       -5.799816   1.000000
   22       -5.672723   1.000000
   23       -5.663218   1.000000
   24       -5.500335   1.000000
   25       -5.491160   1.000000
   26       -5.234726   1.000000
   27       -4.520874   1.000000
   28       -4.453586   1.000000
   29       -4.218888   1.000000
   30       -4.181223   1.000000
   31       -4.094676   1.000000
   32       -4.009624   1.000000
   33       -3.961939   1.000000
   34       -3.853698   1.000000
   35       -3.803164   1.000000
   36       -3.758826   1.000000
   37       -3.724531   1.000000
   38       -3.666651   1.000000
   39       -3.539004   1.000000
   40       -3.451115   1.000000
   41       -3.402326   1.000000
   42       -3.332282   1.000000
   43       -3.224694   1.000000
   44       -3.045767   1.000000
   45       -2.812027   1.000000
   46       -2.630670   1.000000
   47       -2.461518   1.000000
   48       -2.339196   1.000000
   49       -2.302115   1.000000
   50       -2.246407   1.000000
   51       -2.103945   1.000000
   52       -2.059171   1.000000
   53       -2.003596   1.000000
   54       -1.991311   1.000000
   55       -1.925049   1.000000
   56       -1.873879   1.000000
   57       -1.790786   1.000000
   58       -1.734832   1.000000
   59       -1.704597   1.000000
   60       -1.649238   1.000000
   61       -1.527762   1.000000
   62       -1.507782   1.000000
   63       -1.495933   1.000000
   64       -1.430964   1.000000
   65       -1.417031   1.000000
   66       -1.305278   1.000000
   67       -1.213963   1.000000
   68       -1.135334   1.000000
   69       -1.017645   1.000000
   70       -0.820020   1.000000
   71       -0.726477   1.000000
   72       -0.688619   1.000000
   73       -0.527572   1.000000
   74       -0.387522   1.000000
   75       -0.300542   1.000000
   76       -0.202264   1.000000
   77       -0.171436   1.000000
   78       -0.065535   1.000000
   79       -0.033000   1.000000
   80        0.208481   1.000000
   81        0.253289   1.000000
   82        0.392491   1.000000
   83        0.569545   1.000000
   84        0.678474   1.000000
   85        0.817706   1.000000
   86        0.945146   1.000000
   87        1.033674   1.000000
   88        1.111125   1.000000
   89        1.185779   1.000000
   90        1.269372   1.000000
   91        1.287923   1.000000
   92        1.483229   1.000000
   93        1.525393   1.000000
   94        1.659499   1.000000
   95        1.954570   1.000431
   96        2.155097   1.018238
   97        2.233099   1.034302
   98        2.334556   0.992519
   99        2.379989   0.912082
  100        2.434298   0.749691
  101        2.494501   0.508547
  102        2.655504   0.011265
  103        2.789028  -0.029285
  104        2.948455  -0.003165
  105        3.080754  -0.000144
  106        3.114412  -0.000056
  107        3.236934  -0.000001
  108        3.265206  -0.000000
  109        3.328852  -0.000000
  110        3.350234  -0.000000
  111        3.391879  -0.000000
  112        3.479767  -0.000000
  113        3.494041  -0.000000
  114        3.533536  -0.000000
  115        3.638919  -0.000000
  116        3.728426  -0.000000
  117        3.794627  -0.000000
  118        3.874510  -0.000000
  119        3.905317  -0.000000
  120        3.986339  -0.000000
  121        4.052321  -0.000000
  122        4.123957  -0.000000
  123        4.181842  -0.000000
  124        4.221996  -0.000000
  125        4.297207  -0.000000
  126        4.341837  -0.000000
  127        4.441637  -0.000000
  128        4.534032  -0.000000
  129        4.644069  -0.000000
  130        4.683660  -0.000000
  131        4.831585  -0.000000
  132        5.339376  -0.000000

  0.3742002E-15  0.1111111E+00  0.1262378E-14  0.2469136E-01
    1      -11.541129   1.000000
    2      -10.971808   1.000000
    3      -10.206851   1.000000
    4       -9.259038   1.000000
    5       -8.744854   1.000000
    6       -8.353455   1.000000
    7       -8.334096   1.000000
    8       -8.236993   1.000000
    9       -8.154795   1.000000
   10       -7.949923   1.000000
   11       -7.927016   1.000000
   12       -7.820864   1.000000
   13       -7.789685   1.000000
   14       -7.656116   1.000000
   15       -7.350592   1.000000
   16       -7.131898   1.000000
   17       -7.083588   1.000000
   18       -6.848996   1.000000
   19       -6.823687   1.000000
   20       -6.743196   1.000000
   21       -6.576322   1.000000
   22       -6.465126   1.000000
   23       -6.200230   1.000000
   24       -6.121841   1.000000
   25       -5.972826   1.000000
   26       -5.877447   1.000000
   27       -5.862064   1.000000
   28       -5.693071   1.000000
   29       -5.576136   1.000000
   30       -5.205633   1.000000
   31       -4.992004   1.000000
   32       -4.570043   1.000000
   33       -4.536731   1.000000
   34       -4.451454   1.000000
   35       -4.321908   1.000000
   36       -4.096285   1.000000
   37       -3.980960   1.000000
   38       -3.233053   1.000000
   39       -3.214169   1.000000
   40       -2.976699   1.000000
   41       -2.848193   1.000000
   42       -2.832095   1.000000
   43       -2.776518   1.000000
   44       -2.589447   1.000000
   45       -2.440216   1.000000
   46       -2.408806   1.000000
   47       -2.297429   1.000000
   48       -2.107957   1.000000
   49       -2.010699   1.000000
   50       -1.927922   1.000000
   51       -1.828248   1.000000
   52       -1.728864   1.000000
   53       -1.688502   1.000000
   54       -1.663835   1.000000
   55       -1.513908   1.000000
   56       -1.501995   1.000000
   57       -1.449068   1.000000
   58       -1.398234   1.000000
   59       -1.378944   1.000000
   60       -1.299345   1.000000
   61       -1.264813   1.000000
   62       -1.225808   1.000000
   63       -1.174827   1.000000
   64       -1.098146   1.000000
   65       -1.001997   1.000000
   66       -0.902392   1.000000
   67       -0.837273   1.000000
   68       -0.808102   1.000000
   69       -0.653971   1.000000
   70       -0.629265   1.000000
   71       -0.543907   1.000000
   72       -0.407950   1.000000
   73       -0.376413   1.000000
   74       -0.297350   1.000000
   75       -0.249399   1.000000
   76       -0.151958   1.000000
   77       -0.080502   1.000000
   78       -0.004780   1.000000
   79        0.068116   1.000000
   80        0.199107   1.000000
   81        0.263442   1.000000
   82        0.507191   1.000000
   83        0.611476   1.000000
   84        0.702538   1.000000
   85        1.070402   1.000000
   86        1.124545   1.000000
   87        1.257469   1.000000
   88        1.397590   1.000000
   89        1.473413   1.000000
   90        1.492658   1.000000
   91        1.520250   1.000000
   92        1.543843   1.000000
   93        1.561064   1.000000
   94        1.677822   1.000000
   95        1.815592   1.000008
   96        1.938975   1.000291
   97        2.367057   0.940120
   98        2.503637   0.469911
   99        2.694587  -0.024094
  100        2.754050  -0.034899
  101        2.848577  -0.016004
  102        2.881757  -0.010074
  103        2.947936  -0.003197
  104        3.033052  -0.000493
  105        3.270994  -0.000000
  106        3.427627  -0.000000
  107        3.459484  -0.000000
  108        3.469822  -0.000000
  109        3.519270  -0.000000
  110        3.571719  -0.000000
  111        3.624388  -0.000000
  112        3.678316  -0.000000
  113        3.696835  -0.000000
  114        3.728319  -0.000000
  115        3.759472  -0.000000
  116        3.795377  -0.000000
  117        3.848308  -0.000000
  118        3.874514  -0.000000
  119        3.913594  -0.000000
  120        3.950786  -0.000000
  121        4.062442  -0.000000
  122        4.113922  -0.000000
  123        4.161419  -0.000000
  124        4.203693  -0.000000
  125        4.311728  -0.000000
  126        4.616611  -0.000000
  127        4.890446  -0.000000
  128        4.971251  -0.000000
  129        5.107786  -0.000000
  130        6.066031  -0.000000
  131        6.150806  -0.000000
  132        6.330542  -0.000000

  0.1111111E+00  0.1111111E+00  0.1262378E-14  0.2469136E-01
    1      -11.428000   1.000000
    2      -10.867131   1.000000
    3      -10.121116   1.000000
    4       -9.198820   1.000000
    5       -8.737308   1.000000
    6       -8.668877   1.000000
    7       -8.527437   1.000000
    8       -8.467012   1.000000
    9       -8.465500   1.000000
   10       -8.308969   1.000000
   11       -8.242743   1.000000
   12       -7.821752   1.000000
   13       -7.640495   1.000000
   14       -7.488287   1.000000
   15       -7.386633   1.000000
   16       -7.271448   1.000000
   17       -6.923031   1.000000
   18       -6.845648   1.000000
   19       -6.747748   1.000000
   20       -6.720669   1.000000
   21       -6.325743   1.000000
   22       -6.146512   1.000000
   23       -6.030834   1.000000
   24       -5.986949   1.000000
   25       -5.784249   1.000000
   26       -5.777573   1.000000
   27       -5.618994   1.000000
   28       -5.575117   1.000000
   29       -5.359067   1.000000
   30       -5.146727   1.000000
   31       -5.064736   1.000000
   32       -4.636283   1.000000
   33       -4.252432   1.000000
   34       -4.065552   1.000000
   35       -4.043245   1.000000
   36       -3.885015   1.000000
   37       -3.735381   1.000000
   38       -3.277735   1.000000
   39       -3.227322   1.000000
   40       -3.100350   1.000000
   41       -2.976025   1.000000
   42       -2.867116   1.000000
   43       -2.835226   1.000000
   44       -2.745893   1.000000
   45       -2.508906   1.000000
   46       -2.464746   1.000000
   47       -2.319468   1.000000
   48       -2.206222   1.000000
   49       -2.172965   1.000000
   50       -2.034881   1.000000
   51       -1.899682   1.000000
   52       -1.854469   1.000000
   53       -1.673906   1.000000
   54       -1.636801   1.000000
   55       -1.617863   1.000000
   56       -1.599170   1.000000
   57       -1.542710   1.000000
   58       -1.519201   1.000000
   59       -1.411161   1.000000
   60       -1.356176   1.000000
   61       -1.318826   1.000000
   62       -1.247799   1.000000
   63       -1.219735   1.000000
   64       -1.198715   1.000000
   65       -1.139304   1.000000
   66       -1.075876   1.000000
   67       -0.975829   1.000000
   68       -0.835156   1.000000
   69       -0.749525   1.000000
   70       -0.696231   1.000000
   71       -0.582697   1.000000
   72       -0.561404   1.000000
   73       -0.410778   1.000000
   74       -0.363024   1.000000
   75       -0.235035   1.000000
   76       -0.167926   1.000000
   77       -0.040266   1.000000
   78        0.039816   1.000000
   79        0.089650   1.000000
   80        0.222284   1.000000
   81        0.342408   1.000000
   82        0.366390   1.000000
   83        0.536003   1.000000
   84        0.673810   1.000000
   85        0.698890   1.000000
   86        1.003710   1.000000
   87        1.243845   1.000000
   88        1.340915   1.000000
   89        1.394177   1.000000
   90        1.405206   1.000000
   91        1.481768   1.000000
   92        1.505625   1.000000
   93        1.593798   1.000000
   94        1.673448   1.000000
   95        1.845048   1.000021
   96        2.035373   1.002638
   97        2.332241   0.995321
   98        2.549449   0.284503