 running on   60 total cores
 distrk:  each k-point on   60 cores,    1 groups
 distr:  one band on   15 cores,    4 groups
 using from now: INCAR     
 vasp.5.4.4.18Apr17-6-g9f103f2a35 (build Dec  7 2020 12:43:57) complex           
 POSCAR found type information on POSCAR  V  B  H 
 POSCAR found :  3 types and      49 ions
 scaLAPACK will be used

 ----------------------------------------------------------------------------- 
|                                                                             |
|  ADVICE TO THIS USER RUNNING 'VASP/VAMP'   (HEAR YOUR MASTER'S VOICE ...):  |
|                                                                             |
|      You enforced a specific xc-type in the INCAR file,                     |
|      a different type was found on the POTCAR file                          |
|          I HOPE YOU KNOW, WHAT YOU ARE  DOING                               |
|                                                                             |
 ----------------------------------------------------------------------------- 

 LDA part: xc-table for Pade appr. of Perdew
 POSCAR, INCAR and KPOINTS ok, starting setup
 FFT: planning ...
 WAVECAR not read
 WARNING: chargedensity file is incomplete
 entering main loop
       N       E                     dE             d eps       ncg     rms          rms(c)
DAV:   1     0.300558754474E+04    0.30056E+04   -0.14177E+05 30920   0.150E+03
DAV:   2    -0.175373743860E+03   -0.31810E+04   -0.30897E+04 28680   0.458E+02
DAV:   3    -0.417996242273E+03   -0.24262E+03   -0.23754E+03 33840   0.129E+02
DAV:   4    -0.426181212180E+03   -0.81850E+01   -0.80678E+01 31952   0.228E+01
DAV:   5    -0.426447998842E+03   -0.26679E+00   -0.26562E+00 32816   0.385E+00    0.103E+02
DAV:   6    -0.395426084455E+03    0.31022E+02   -0.95130E+02 32784   0.921E+01    0.624E+01
DAV:   7    -0.420024661054E+03   -0.24599E+02   -0.93729E+02 35868   0.108E+02    0.579E+01
DAV:   8    -0.381832782645E+03    0.38192E+02   -0.47834E+02 34388   0.719E+01    0.459E+01
DAV:   9    -0.372860572189E+03    0.89722E+01   -0.20313E+02 33860   0.428E+01    0.494E+01
DAV:  10    -0.351282373768E+03    0.21578E+02   -0.83671E+01 33396   0.294E+01    0.271E+01
DAV:  11    -0.345181219192E+03    0.61012E+01   -0.21571E+01 33832   0.146E+01    0.128E+01
DAV:  12    -0.344363137295E+03    0.81808E+00   -0.45649E+00 32952   0.650E+00    0.839E+00
DAV:  13    -0.343767548569E+03    0.59559E+00   -0.14719E+00 33616   0.463E+00    0.406E+00
DAV:  14    -0.343676526232E+03    0.91022E-01   -0.16586E+00 33480   0.511E+00    0.437E+00
DAV:  15    -0.343573079883E+03    0.10345E+00   -0.84596E-01 32908   0.369E+00    0.275E+00
DAV:  16    -0.343527393809E+03    0.45686E-01   -0.17342E-01 33440   0.172E+00    0.196E+00
DAV:  17    -0.343505988649E+03    0.21405E-01   -0.85901E-02 33304   0.133E+00    0.144E+00
DAV:  18    -0.343480780811E+03    0.25208E-01   -0.73283E-02 33096   0.112E+00    0.531E-01
DAV:  19    -0.343473232775E+03    0.75480E-02   -0.21235E-02 32368   0.536E-01    0.170E-01
DAV:  20    -0.343470136095E+03    0.30967E-02   -0.50367E-03 31888   0.237E-01    0.152E-01
DAV:  21    -0.343466831591E+03    0.33045E-02   -0.52508E-03 30856   0.226E-01    0.102E-01
DAV:  22    -0.343466434754E+03    0.39684E-03   -0.20445E-03 29112   0.137E-01    0.581E-02
DAV:  23    -0.343466369862E+03    0.64892E-04   -0.64350E-04 28720   0.579E-02    0.394E-02
DAV:  24    -0.343466587610E+03   -0.21775E-03   -0.23143E-04 30816   0.418E-02    0.214E-02
DAV:  25    -0.343467235530E+03   -0.64792E-03   -0.10149E-04 29800   0.335E-02    0.233E-02
DAV:  26    -0.343468052250E+03   -0.81672E-03   -0.11364E-04 27656   0.285E-02    0.104E-02
DAV:  27    -0.343468534671E+03   -0.48242E-03   -0.64463E-05 26088   0.131E-02    0.129E-02
DAV:  28    -0.343468857869E+03   -0.32320E-03   -0.57202E-05 29312   0.177E-02    0.998E-03
DAV:  29    -0.343468952181E+03   -0.94313E-04   -0.21324E-05 28688   0.142E-02    0.743E-03
DAV:  30    -0.343468994157E+03   -0.41976E-04   -0.42353E-06 21792   0.430E-03    0.429E-03
DAV:  31    -0.343469008666E+03   -0.14509E-04   -0.90644E-07 19288   0.201E-03    0.240E-03
DAV:  32    -0.343469015408E+03   -0.67420E-05   -0.40075E-07 16800   0.158E-03    0.813E-04
DAV:  33    -0.343469019075E+03   -0.36671E-05   -0.25352E-07 16616   0.870E-04    0.410E-04
DAV:  34    -0.343469020659E+03   -0.15841E-05   -0.11877E-07 15056   0.672E-04    0.369E-04
DAV:  35    -0.343469021711E+03   -0.10515E-05   -0.80409E-08 15264   0.608E-04    0.201E-04
DAV:  36    -0.343469021933E+03   -0.22223E-06   -0.24343E-08 13920   0.224E-04
   1 F= -.34346902E+03 E0= -.34346759E+03  d E =-.428163E-02
