   75   75   85    1
  0.2059393E+02  0.1036705E-08  0.2428040E-08  0.6136055E-09  0.5000000E-15
   1.0000000000000000E-004
  CAR 
 Name                                    
    279     23    184

  0.3742002E-15  0.1262379E-14  0.3742002E-15  0.2222222E-01
    1      -13.985155   1.000000
    2      -12.815301   1.000000
    3      -12.796181   1.000000
    4      -12.781373   1.000000
    5      -11.849748   1.000000
    6      -11.701071   1.000000
    7      -11.636682   1.000000
    8      -11.436361   1.000000
    9      -11.424363   1.000000
   10      -11.257985   1.000000
   11      -11.231714   1.000000
   12      -10.978638   1.000000
   13      -10.924972   1.000000
   14      -10.473722   1.000000
   15      -10.419479   1.000000
   16      -10.328570   1.000000
   17      -10.142506   1.000000
   18      -10.051610   1.000000
   19       -9.816600   1.000000
   20       -9.584673   1.000000
   21       -9.551738   1.000000
   22       -9.468669   1.000000
   23       -9.428657   1.000000
   24       -9.339053   1.000000
   25       -8.838585   1.000000
   26       -8.799276   1.000000
   27       -8.733741   1.000000
   28       -8.422518   1.000000
   29       -8.377102   1.000000
   30       -8.130136   1.000000
   31       -8.125818   1.000000
   32       -7.842195   1.000000
   33       -7.746018   1.000000
   34       -7.413408   1.000000
   35       -7.338766   1.000000
   36       -7.187220   1.000000
   37       -7.108739   1.000000
   38       -7.021072   1.000000
   39       -6.810333   1.000000
   40       -6.768451   1.000000
   41       -6.699365   1.000000
   42       -6.688266   1.000000
   43       -6.686106   1.000000
   44       -6.578062   1.000000
   45       -6.418085   1.000000
   46       -6.240918   1.000000
   47       -6.219059   1.000000
   48       -6.097461   1.000000
   49       -6.093161   1.000000
   50       -5.941112   1.000000
   51       -5.775830   1.000000
   52       -5.700850   1.000000
   53       -5.645752   1.000000
   54       -5.638206   1.000000
   55       -5.611836   1.000000
   56       -5.586563   1.000000
   57       -5.460508   1.000000
   58       -5.378927   1.000000
   59       -5.363039   1.000000
   60       -5.217046   1.000000
   61       -5.200140   1.000000
   62       -5.104704   1.000000
   63       -5.038615   1.000000
   64       -4.734375   1.000000
   65       -4.677929   1.000000
   66       -4.654026   1.000000
   67       -4.546254   1.000000
   68       -4.519659   1.000000
   69       -4.388570   1.000000
   70       -4.221915   1.000000
   71       -4.107707   1.000000
   72       -4.090282   1.000000
   73       -4.040518   1.000000
   74       -4.010834   1.000000
   75       -3.971507   1.000000
   76       -3.926091   1.000000
   77       -3.915069   1.000000
   78       -3.906720   1.000000
   79       -3.893886   1.000000
   80       -3.882359   1.000000
   81       -3.760574   1.000000
   82       -3.624686   1.000000
   83       -3.589964   1.000000
   84       -3.574782   1.000000
   85       -3.564189   1.000000
   86       -3.528502   1.000000
   87       -3.503460   1.000000
   88       -3.490567   1.000000
   89       -3.473123   1.000000
   90       -3.452096   1.000000
   91       -3.438351   1.000000
   92       -3.412035   1.000000
   93       -3.246254   1.000000
   94       -3.230466   1.000000
   95       -3.018699   1.000000
   96       -2.919766   1.000000
   97       -2.905103   1.000000
   98       -2.854951   1.000000
   99       -2.766555   1.000000
  100       -2.691387   1.000000
  101       -2.577612   1.000000
  102       -2.431659   1.000000
  103       -2.374674   1.000000
  104       -2.333804   1.000000
  105       -2.279333   1.000000
  106       -2.218881   1.000000
  107       -2.095686   1.000000
  108       -2.053441   1.000000
  109       -2.003383   1.000000
  110       -1.986745   1.000000
  111       -1.929586   1.000000
  112       -1.863247   1.000000
  113       -1.831556   1.000000
  114       -1.730111   1.000000
  115       -1.680967   1.000000
  116       -1.598417   1.000000
  117       -1.580515   1.000000
  118       -1.529736   1.000000
  119       -1.510195   1.000000
  120       -1.398081   1.000000
  121       -1.352009   1.000000
  122       -1.206077   1.000000
  123       -0.861599   1.000000
  124       -0.819320   1.000000
  125       -0.794634   1.000000
  126       -0.631738   1.000000
  127       -0.447214   1.000000
  128       -0.423151   1.000000
  129       -0.410710   1.000000
  130       -0.323904   1.000000
  131       -0.063489   1.000000
  132       -0.027801   1.000000
  133        0.094155   1.000233
  134        0.237587   1.031897
  135        0.275619   1.026732
  136        0.306288   0.963164
  137        0.313876   0.934553
  138        0.368061   0.577350
  139        0.463504  -0.004376
  140        0.488608  -0.033256
  141        0.522169  -0.029842
  142        0.571636  -0.009542
  143        0.597828  -0.003889
  144        0.612548  -0.002177
  145        0.621137  -0.001515
  146        0.634551  -0.000830
  147        0.663515  -0.000197
  148        0.784933  -0.000000
  149        0.832243  -0.000000
  150        0.843452  -0.000000
  151        1.041872  -0.000000
  152        1.067617  -0.000000
  153        1.099189  -0.000000
  154        1.141616  -0.000000
  155        1.175628  -0.000000
  156        1.208808  -0.000000
  157        1.231026  -0.000000
  158        1.315540  -0.000000
  159        1.369562  -0.000000
  160        1.376438  -0.000000
  161        1.383698  -0.000000
  162        1.426558  -0.000000
  163        1.436746  -0.000000
  164        1.447689  -0.000000
  165        1.535817  -0.000000
  166        1.605423  -0.000000
  167        1.619707  -0.000000
  168        1.633880  -0.000000
  169        1.640213  -0.000000
  170        1.680832  -0.000000
  171        1.690075  -0.000000
  172        1.699632  -0.000000
  173        1.708834  -0.000000
  174        1.749783  -0.000000
  175        1.776929  -0.000000
  176        1.794926  -0.000000
  177        1.805401  -0.000000
  178        1.819557  -0.000000
  179        1.898265  -0.000000
  180        1.978917  -0.000000
  181        2.007643  -0.000000
  182        2.098431  -0.000000
  183        2.217894  -0.000000
  184        2.232357  -0.000000

  0.2000000E+00  0.1262379E-14  0.3742002E-15  0.4444444E-01
    1      -13.935897   1.000000
    2      -13.216972   1.000000
    3      -12.741254   1.000000
    4      -12.314193   1.000000
    5      -12.062149   1.000000
    6      -11.833560   1.000000
    7      -11.584587   1.000000
    8      -11.246736   1.000000
    9      -11.237477   1.000000
   10      -11.226817   1.000000
   11      -11.177870   1.000000
   12      -11.051293   1.000000
   13      -10.823179   1.000000
   14      -10.603504   1.000000
   15      -10.556245   1.000000
   16      -10.516554   1.000000
   17      -10.452702   1.000000
   18       -9.843287   1.000000
   19       -9.787906   1.000000
   20       -9.621723   1.000000
   21       -9.484045   1.000000
   22       -9.443361   1.000000
   23       -9.407829   1.000000
   24       -9.318796   1.000000
   25       -9.023636   1.000000
   26       -8.901022   1.000000
   27       -8.351230   1.000000
   28       -8.278362   1.000000
   29       -8.184220   1.000000
   30       -8.133516   1.000000
   31       -8.065711   1.000000
   32       -8.049912   1.000000
   33       -7.622098   1.000000
   34       -7.518919   1.000000
   35       -7.373247   1.000000
   36       -7.274572   1.000000
   37       -7.206753   1.000000
   38       -7.149118   1.000000
   39       -6.878170   1.000000
   40       -6.848561   1.000000
   41       -6.737184   1.000000
   42       -6.642201   1.000000
   43       -6.611644   1.000000
   44       -6.594834   1.000000
   45       -6.403748   1.000000
   46       -6.294389   1.000000
   47       -6.165549   1.000000
   48       -6.073584   1.000000
   49       -6.059398   1.000000
   50       -6.015449   1.000000
   51       -5.776398   1.000000
   52       -5.740223   1.000000
   53       -5.675561   1.000000
   54       -5.635403   1.000000
   55       -5.540565   1.000000
   56       -5.360252   1.000000
   57       -5.329685   1.000000
   58       -5.328367   1.000000
   59       -5.256451   1.000000
   60       -5.200609   1.000000
   61       -5.188967   1.000000
   62       -5.083347   1.000000
   63       -5.017083   1.000000
   64       -4.970667   1.000000
   65       -4.803196   1.000000
   66       -4.714432   1.000000
   67       -4.560954   1.000000
   68       -4.483653   1.000000
   69       -4.370087   1.000000
   70       -4.242583   1.000000
   71       -4.110670   1.000000
   72       -4.084870   1.000000
   73       -4.074869   1.000000
   74       -4.062834   1.000000
   75       -4.019066   1.000000
   76       -3.982225   1.000000
   77       -3.895867   1.000000
   78       -3.865669   1.000000
   79       -3.828509   1.000000
   80       -3.746781   1.000000
   81       -3.725455   1.000000
   82       -3.681369   1.000000
   83       -3.614541   1.000000
   84       -3.597858   1.000000
   85       -3.576727   1.000000
   86       -3.543068   1.000000
   87       -3.500903   1.000000
   88       -3.478694   1.000000
   89       -3.450635   1.000000
   90       -3.438682   1.000000
   91       -3.436074   1.000000
   92       -3.387171   1.000000
   93       -3.307866   1.000000
   94       -3.263874   1.000000
   95       -3.030766   1.000000
   96       -2.967999   1.000000
   97       -2.941160   1.000000
   98       -2.818041   1.000000
   99       -2.767756   1.000000
  100       -2.684282   1.000000
  101       -2.596962   1.000000
  102       -2.484638   1.000000
  103       -2.359720   1.000000
  104       -2.335029   1.000000
  105       -2.308166   1.000000
  106       -2.192821   1.000000
  107       -2.095894   1.000000
  108       -1.995485   1.000000
  109       -1.952861   1.000000
  110       -1.909997   1.000000
  111       -1.896006   1.000000
  112       -1.830936   1.000000
  113       -1.814163   1.000000
  114       -1.789967   1.000000
  115       -1.615177   1.000000
  116       -1.582857   1.000000
  117       -1.523345   1.000000
  118       -1.452685   1.000000
  119       -1.415322   1.000000
  120       -1.386055   1.000000
  121       -1.286356   1.000000
  122       -1.169431   1.000000
  123       -0.902311   1.000000
  124       -0.865928   1.000000
  125       -0.806847   1.000000
  126       -0.746529   1.000000
  127       -0.558741   1.000000
  128       -0.434391   1.000000
  129       -0.416312   1.000000
  130       -0.390766   1.000000
  131       -0.231050   1.000000
  132       -0.193153   1.000000
  133       -0.075993   1.000000
  134        0.110777   1.000538
  135        0.148773   1.002869
  136        0.240412   1.032866
  137        0.316415   0.923698
  138        0.370962   0.553040
  139        0.450600   0.028951
  140        0.573978  -0.008872
  141        0.601335  -0.003403
  142        0.625774  -0.001236
  143        0.647021  -0.000458
  144        0.652549  -0.000347
  145        0.675317  -0.000104
  146        0.685907  -0.000057
  147        0.723518  -0.000006
  148        0.788183  -0.000000
  149        0.802500  -0.000000
  150        0.894545  -0.000000
  151        1.080284  -0.000000
  152        1.120672  -0.000000
  153        1.148104  -0.000000
  154        1.180654  -0.000000
  155        1.260826  -0.000000
  156        1.275883  -0.000000
  157        1.287759  -0.000000
  158        1.335760  -0.000000
  159        1.347117  -0.000000
  160        1.371983  -0.000000
  161        1.442703  -0.000000
  162        1.448329  -0.000000
  163        1.461773  -0.000000
  164        1.501261  -0.000000
  165        1.514750  -0.000000
  166        1.591681  -0.000000
  167        1.615811  -0.000000
  168        1.637184  -0.000000
  169        1.643507  -0.000000
  170        1.667668  -0.000000
  171        1.688370  -0.000000
  172        1.712017  -0.000000
  173        1.742699  -0.000000
  174        1.791703  -0.000000
  175        1.798833  -0.000000
  176        1.851395  -0.000000
  177        1.868676  -0.000000
  178        1.878580  -0.000000
  179        1.948892  -0.000000
  180        2.009552  -0.000000
  181        2.034648  -0.000000
  182        2.098705  -0.000000
  183        2.130394  -0.000000
  184        2.150263  -0.000000

  0.4000000E+00  0.1262379E-14  0.3742002E-15  0.4444444E-01
    1      -13.789192   1.000000
    2      -13.547707   1.000000
    3      -12.604420   1.000000
    4      -12.374762   1.000000
    5      -11.785190   1.000000
    6      -11.759014   1.000000
    7      -11.702337   1.000000
    8      -11.205193   1.000000
    9      -11.163956   1.000000
   10      -11.153027   1.000000
   11      -11.086431   1.000000
   12      -10.995004   1.000000
   13      -10.881820   1.000000
   14      -10.765065   1.000000
   15      -10.684087   1.000000
   16      -10.652196   1.000000
   17      -10.549637   1.000000
   18      -10.076423   1.000000
   19       -9.799793   1.000000
   20       -9.672654   1.000000
   21       -9.446449   1.000000
   22       -9.396454   1.000000
   23       -9.352472   1.000000
   24       -9.247739   1.000000
   25       -9.084879   1.000000
   26       -8.771361   1.000000
   27       -8.311566   1.000000
   28       -8.123590   1.000000
   29       -7.949677   1.000000
   30       -7.897949   1.000000
   31       -7.859833   1.000000
   32       -7.825735   1.000000
   33       -7.743875   1.000000
   34       -7.703242   1.000000
   35       -7.522691   1.000000
   36       -7.477986   1.000000
   37       -7.361632   1.000000
   38       -7.336609   1.000000
   39       -7.218924   1.000000
   40       -6.948720   1.000000
   41       -6.771300   1.000000
   42       -6.673586   1.000000
   43       -6.584870   1.000000
   44       -6.438924   1.000000
   45       -6.364336   1.000000
   46       -6.227912   1.000000
   47       -6.101172   1.000000
   48       -5.979044   1.000000
   49       -5.913532   1.000000
   50       -5.894967   1.000000
   51       -5.829499   1.000000
   52       -5.812196   1.000000
   53       -5.716183   1.000000
   54       -5.701600   1.000000
   55       -5.559575   1.000000
   56       -5.424658   1.000000
   57       -5.407319   1.000000
   58       -5.231440   1.000000
   59       -5.144344   1.000000
   60       -5.140198   1.000000
   61       -5.097544   1.000000
   62       -5.068094   1.000000
   63       -4.946984   1.000000
   64       -4.865464   1.000000
   65       -4.790864   1.000000
   66       -4.693373   1.000000
   67       -4.558788   1.000000
   68       -4.507729   1.000000
   69       -4.363150   1.000000
   70       -4.341245   1.000000
   71       -4.291746   1.000000
   72       -4.176573   1.000000
   73       -4.104041   1.000000
   74       -4.029092   1.000000
   75       -4.003174   1.000000
   76       -3.986768   1.000000
   77       -3.967795   1.000000
   78       -3.942930   1.000000
   79       -3.916005   1.000000
   80       -3.792389   1.000000
   81       -3.683813   1.000000
   82       -3.668566   1.000000
   83       -3.663011   1.000000
   84       -3.655813   1.000000
   85       -3.607592   1.000000
   86       -3.525091   1.000000
   87       -3.465748   1.000000
   88       -3.429998   1.000000
   89       -3.424166   1.000000
   90       -3.309629   1.000000
   91       -3.291655   1.000000
   92       -3.262771   1.000000
   93       -3.244727   1.000000
   94       -3.216115   1.000000
   95       -3.092860   1.000000
   96       -3.083067   1.000000
   97       -3.024797   1.000000
   98       -2.930791   1.000000
   99       -2.816343   1.000000
  100       -2.801956   1.000000
  101       -2.633692   1.000000
  102       -2.495904   1.000000
  103       -2.359703   1.000000
  104       -2.305743   1.000000
  105       -2.172412   1.000000
  106       -2.162540   1.000000
  107       -2.137498   1.000000
  108       -2.030709   1.000000
  109       -1.943778   1.000000
  110       -1.924371   1.000000
  111       -1.901161   1.000000
  112       -1.781411   1.000000
  113       -1.638752   1.000000
  114       -1.580014   1.000000
  115       -1.536476   1.000000
  116       -1.518293   1.000000
  117       -1.490087   1.000000
  118       -1.334233   1.000000
  119       -1.254750   1.000000
  120       -1.203804   1.000000
  121       -1.084032   1.000000
  122       -1.051456   1.000000
  123       -1.033772   1.000000
  124       -1.012586   1.000000
  125       -0.905810   1.000000
  126       -0.840090   1.000000
  127       -0.728837   1.000000
  128       -0.695088   1.000000
  129       -0.671995   1.000000
  130       -0.549632   1.000000
  131       -0.402414   1.000000
  132       -0.386609   1.000000
  133       -0.093162   1.000000
  134       -0.075450   1.000000
  135        0.080042   1.000109
  136        0.283781   1.016945
  137        0.316199   0.924647
  138        0.359881   0.644504
  139        0.426390   0.134624
  140        0.524477  -0.028866
  141        0.556893  -0.014567
  142        0.566500  -0.011136
  143        0.645473  -0.000494
  144        0.671169  -0.000131
  145        0.704492  -0.000019
  146        0.732607  -0.000003
  147        0.813683  -0.000000
  148        0.915156  -0.000000
  149        0.960617  -0.000000
  150        0.971197  -0.000000
  151        1.108516  -0.000000
  152        1.184409  -0.000000
  153        1.198522  -0.000000
  154        1.245634  -0.000000
  155        1.281012  -0.000000
  156        1.317462  -0.000000
  157        1.373009  -0.000000
  158        1.412309  -0.000000
  159        1.471322  -0.000000
  160        1.475105  -0.000000
  161        1.481013  -0.000000
  162        1.502774  -0.000000
  163        1.507492  -0.000000
  164        1.567307  -0.000000
  165        1.602955  -0.000000
  166        1.615842  -0.000000
  167        1.630109  -0.000000
  168        1.639015  -0.000000
  169        1.660319  -0.000000
  170        1.702943  -0.000000
  171        1.732620  -0.000000
  172        1.763930  -0.000000
  173        1.778236  -0.000000
  174        1.812086  -0.000000
  175        1.825527  -0.000000
  176        1.857305  -0.000000
  177        1.898667  -0.000000
  178        1.926531  -0.000000
  179        1.978112  -0.000000
  180        2.008188  -0.000000
  181        2.030998  -0.000000
  182        2.051812  -0.000000
  183        2.097038  -0.000000
  184        2.099682  -0.000000

  0.3742002E-15  0.1262379E-14  0.1111111E+00  0.4444444E-01
    1      -13.939734   1.000000
    2      -12.779972   1.000000
    3      -12.761465   1.000000
    4      -12.743578   1.000000
    5      -11.955473   1.000000
    6      -11.672668   1.000000
    7      -11.608009   1.000000
    8      -11.482379   1.000000
    9      -11.470672   1.000000
   10      -11.320289   1.000000
   11      -11.199777   1.000000
   12      -10.989360   1.000000
   13      -10.936700   1.000000
   14      -10.469346   1.000000
   15      -10.424814   1.000000
   16      -10.305271   1.000000
   17      -10.123316   1.000000
   18      -10.013278   1.000000
   19       -9.831671   1.000000
   20       -9.602331   1.000000
   21       -9.547768   1.000000
   22       -9.496121   1.000000
   23       -9.411682   1.000000
   24       -9.344350   1.000000
   25       -8.831772   1.000000
   26       -8.808197   1.000000
   27       -8.730247   1.000000
   28       -8.416664   1.000000
   29       -8.389016   1.000000
   30       -8.139797   1.000000
   31       -7.965575   1.000000
   32       -7.857333   1.000000
   33       -7.832997   1.000000
   34       -7.478287   1.000000
   35       -7.352506   1.000000
   36       -7.290445   1.000000
   37       -7.114341   1.000000
   38       -6.989991   1.000000
   39       -6.829159   1.000000
   40       -6.748380   1.000000
   41       -6.636369   1.000000
   42       -6.627154   1.000000
   43       -6.622316   1.000000
   44       -6.557062   1.000000
   45       -6.411984   1.000000
   46       -6.254502   1.000000
   47       -6.237576   1.000000
   48       -6.139649   1.000000
   49       -6.118010   1.000000
   50       -5.900853   1.000000
   51       -5.745638   1.000000
   52       -5.710006   1.000000
   53       -5.672096   1.000000
   54       -5.660093   1.000000
   55       -5.624962   1.000000
   56       -5.454895   1.000000
   57       -5.415176   1.000000
   58       -5.359421   1.000000
   59       -5.315256   1.000000
   60       -5.220839   1.000000
   61       -5.141397   1.000000
   62       -5.087747   1.000000
   63       -5.015122   1.000000
   64       -4.678514   1.000000
   65       -4.634750   1.000000
   66       -4.625724   1.000000
   67       -4.539013   1.000000
   68       -4.510071   1.000000
   69       -4.375624   1.000000
   70       -4.229769   1.000000
   71       -4.136206   1.000000
   72       -4.098653   1.000000
   73       -4.066036   1.000000
   74       -4.033461   1.000000
   75       -3.984874   1.000000
   76       -3.955045   1.000000
   77       -3.947623   1.000000
   78       -3.919536   1.000000
   79       -3.915368   1.000000
   80       -3.909933   1.000000
   81       -3.817785   1.000000
   82       -3.753256   1.000000
   83       -3.729877   1.000000
   84       -3.680586   1.000000
   85       -3.655491   1.000000
   86       -3.603909   1.000000
   87       -3.544041   1.000000
   88       -3.508985   1.000000
   89       -3.477702   1.000000
   90       -3.470299   1.000000
   91       -3.450863   1.000000
   92       -3.380378   1.000000
   93       -3.258791   1.000000
   94       -3.210979   1.000000
   95       -2.987408   1.000000
   96       -2.921280   1.000000
   97       -2.865701   1.000000
   98       -2.801377   1.000000
   99       -2.692007   1.000000
  100       -2.613628   1.000000
  101       -2.495361   1.000000
  102       -2.458420   1.000000
  103       -2.440984   1.000000
  104       -2.395126   1.000000
  105       -2.245455   1.000000
  106       -2.198533   1.000000
  107       -2.165053   1.000000
  108       -2.056547   1.000000
  109       -2.006081   1.000000
  110       -1.970273   1.000000
  111       -1.942579   1.000000
  112       -1.889754   1.000000
  113       -1.779554   1.000000
  114       -1.738814   1.000000
  115       -1.686065   1.000000
  116       -1.661817   1.000000
  117       -1.596231   1.000000
  118       -1.494393   1.000000
  119       -1.476177   1.000000
  120       -1.313582   1.000000
  121       -1.272597   1.000000
  122       -1.113725   1.000000
  123       -0.900048   1.000000
  124       -0.887007   1.000000
  125       -0.722465   1.000000
  126       -0.610021   1.000000
  127       -0.555241   1.000000
  128       -0.510185   1.000000
  129       -0.450479   1.000000
  130       -0.209859   1.000000
  131       -0.177614   1.000000
  132       -0.143185   1.000000
  133        0.139992   1.002008
  134        0.174316   1.007265
  135        0.242038   1.033370
  136        0.270247   1.030947
  137        0.288393   1.009355
  138        0.305317   0.966420
  139        0.393183   0.366994
  140        0.430575   0.112153
  141        0.453352   0.020590
  142        0.456344   0.012289
  143        0.597487  -0.003940
  144        0.636674  -0.000752
  145        0.646960  -0.000459
  146        0.805361  -0.000000
  147        0.819690  -0.000000
  148        0.858972  -0.000000
  149        0.938048  -0.000000
  150        1.000607  -0.000000
  151        1.021584  -0.000000
  152        1.041455  -0.000000
  153        1.092458  -0.000000
  154        1.150633  -0.000000
  155        1.193523  -0.000000
  156        1.228298  -0.000000
  157        1.262738  -0.000000
  158        1.274618  -0.000000
  159        1.334264  -0.000000
  160        1.362614  -0.000000
  161        1.400789  -0.000000
  162        1.422908  -0.000000
  163        1.455748  -0.000000
  164        1.479370  -0.000000
  165        1.538408  -0.000000
  166        1.555103  -0.000000
  167        1.574560  -0.000000
  168        1.608068  -0.000000
  169        1.630182  -0.000000
  170        1.661341  -0.000000
  171        1.668862  -0.000000
  172        1.681459  -0.000000
  173        1.761050  -0.000000
  174        1.778816  -0.000000
  175        1.787689  -0.000000
  176        1.841261  -0.000000
  177        1.855423  -0.000000
  178        1.873160  -0.000000
  179        1.909184  -0.000000
  180        1.934344  -0.000000
  181        2.004234  -0.000000
  182        2.029523  -0.000000
  183        2.120606  -0.000000
  184        2.228453  -0.000000

  0.2000000E+00  0.1262379E-14  0.1111111E+00  0.4444444E-01
    1      -13.890907   1.000000
    2      -13.178111   1.000000
    3      -12.703216   1.000000
    4      -12.285514   1.000000
    5      -12.029444   1.000000
    6      -11.936240   1.000000
    7      -11.646353   1.000000
    8      -11.304475   1.000000
    9      -11.273801   1.000000
   10      -11.195834   1.000000
   11      -11.151892   1.000000
   12      -11.073141   1.000000
   13      -10.824485   1.000000
   14      -10.580653   1.000000
   15      -10.540355   1.000000
   16      -10.497878   1.000000
   17      -10.466492   1.000000
   18       -9.848502   1.000000
   19       -9.783332   1.000000
   20       -9.606678   1.000000
   21       -9.492878   1.000000
   22       -9.457670   1.000000
   23       -9.401808   1.000000
   24       -9.322518   1.000000
   25       -9.025242   1.000000
   26       -8.891705   1.000000
   27       -8.372918   1.000000
   28       -8.274006   1.000000
   29       -8.164118   1.000000
   30       -8.143862   1.000000
   31       -8.086280   1.000000
   32       -7.898603   1.000000
   33       -7.699496   1.000000
   34       -7.598285   1.000000
   35       -7.365237   1.000000
   36       -7.324361   1.000000
   37       -7.183296   1.000000
   38       -7.088654   1.000000
   39       -6.897809   1.000000
   40       -6.862496   1.000000
   41       -6.729715   1.000000
   42       -6.641695   1.000000
   43       -6.584470   1.000000
   44       -6.539789   1.000000
   45       -6.464573   1.000000
   46       -6.403020   1.000000
   47       -6.168176   1.000000
   48       -6.104631   1.000000
   49       -5.978149   1.000000
   50       -5.850371   1.000000
   51       -5.775376   1.000000
   52       -5.745547   1.000000
   53       -5.690552   1.000000
   54       -5.649396   1.000000
   55       -5.547150   1.000000
   56       -5.393903   1.000000
   57       -5.269149   1.000000
   58       -5.244927   1.000000
   59       -5.228335   1.000000
   60       -5.180149   1.000000
   61       -5.130621   1.000000
   62       -5.058528   1.000000
   63       -4.998601   1.000000
   64       -4.972210   1.000000
   65       -4.762198   1.000000
   66       -4.677132   1.000000
   67       -4.542684   1.000000
   68       -4.415374   1.000000
   69       -4.372744   1.000000
   70       -4.235199   1.000000
   71       -4.148722   1.000000
   72       -4.127040   1.000000
   73       -4.081453   1.000000
   74       -4.055195   1.000000
   75       -4.002095   1.000000
   76       -3.992000   1.000000
   77       -3.948992   1.000000
   78       -3.935662   1.000000
   79       -3.876565   1.000000
   80       -3.800363   1.000000
   81       -3.758546   1.000000
   82       -3.739708   1.000000
   83       -3.722818   1.000000
   84       -3.694886   1.000000
   85       -3.651913   1.000000
   86       -3.621513   1.000000
   87       -3.569920   1.000000
   88       -3.514833   1.000000
   89       -3.493016   1.000000
   90       -3.463875   1.000000
   91       -3.404545   1.000000
   92       -3.327638   1.000000
   93       -3.282744   1.000000
   94       -3.229555   1.000000
   95       -2.990883   1.000000
   96       -2.916708   1.000000
   97       -2.872584   1.000000
   98       -2.845313   1.000000
   99       -2.792102   1.000000
  100       -2.663823   1.000000
  101       -2.588088   1.000000
  102       -2.485158   1.000000
  103       -2.356313   1.000000
  104       -2.332694   1.000000
  105       -2.282727   1.000000
  106       -2.194248   1.000000
  107       -2.154560   1.000000
  108       -2.026398   1.000000
  109       -1.969960   1.000000
  110       -1.940547   1.000000
  111       -1.916875   1.000000
  112       -1.824043   1.000000
  113       -1.752879   1.000000
  114       -1.718144   1.000000
  115       -1.666793   1.000000
  116       -1.600914   1.000000
  117       -1.570187   1.000000
  118       -1.478725   1.000000
  119       -1.393903   1.000000
  120       -1.348321   1.000000
  121       -1.247302   1.000000
  122       -1.120347   1.000000
  123       -0.957921   1.000000
  124       -0.860460   1.000000
  125       -0.838935   1.000000
  126       -0.694850   1.000000
  127       -0.632411   1.000000
  128       -0.611871   1.000000
  129       -0.385237   1.000000
  130       -0.373087   1.000000
  131       -0.190372   1.000000
  132       -0.042320   1.000000
  133        0.081876   1.000121
  134        0.124350   1.001017
  135        0.146966   1.002670
  136        0.172198   1.006769
  137        0.222002   1.025267
  138        0.302084   0.976607
  139        0.368313   0.575246
  140        0.457001   0.010576
  141        0.509841  -0.034087
  142        0.535603  -0.023825
  143        0.611016  -0.002318
  144        0.653533  -0.000331
  145        0.675889  -0.000101
  146        0.788271  -0.000000
  147        0.863282  -0.000000
  148        0.892566  -0.000000
  149        0.929762  -0.000000
  150        0.996097  -0.000000
  151        1.035725  -0.000000
  152        1.048133  -0.000000
  153        1.163873  -0.000000
  154        1.232476  -0.000000
  155        1.271573  -0.000000
  156        1.288942  -0.000000
  157        1.320966  -0.000000