 running on   72 total cores
 distrk:  each k-point on   72 cores,    1 groups
 distr:  one band on    9 cores,    8 groups
 using from now: INCAR     
 vasp.5.4.4.18Apr17-6-g9f103f2a35 (build Dec  7 2020 12:43:57) complex           
 POSCAR found type information on POSCAR  Mo V  B  H 
 POSCAR found :  4 types and      75 ions
 scaLAPACK will be used
 LDA part: xc-table for Pade appr. of Perdew
 POSCAR, INCAR and KPOINTS ok, starting setup
 resort distribution
 resort distribution
 resort distribution
 resort distribution
 resort distribution
 resort distribution
 resort distribution
 resort distribution
 resort distribution
 resort distribution
 resort distribution
 resort distribution
 resort distribution
 resort distribution
 resort distribution
 resort distribution
 resort distribution
 resort distribution
 resort distribution
 resort distribution
 resort distribution
 resort distribution
 resort distribution
 resort distribution
 resort distribution
 resort distribution
 resort distribution
 resort distribution
 resort distribution
 resort distribution
 resort distribution
 resort distribution
 resort distribution
 resort distribution
 resort distribution
 resort distribution
 resort distribution
 resort distribution
 resort distribution
 resort distribution
 resort distribution
 resort distribution
 resort distribution
 resort distribution
 resort distribution
 resort distribution
 resort distribution
 resort distribution
 resort distribution
 resort distribution
 resort distribution
 resort distribution
 resort distribution
 resort distribution
 resort distribution
 resort distribution
 resort distribution
 resort distribution
 resort distribution
 resort distribution
 resort distribution
 resort distribution
 resort distribution
 resort distribution
 resort distribution
 resort distribution
 resort distribution
 resort distribution
 resort distribution
 resort distribution
 resort distribution
 resort distribution
 FFT: planning ...
 WAVECAR not read
 augmentation electrons   279.02613149437502     
 soft         electrons   0.0000000000000000     
 augmentation electrons   279.02613149437502     
 soft         electrons   0.0000000000000000     
 augmentation electrons   279.02613149437502     
 soft         electrons   0.0000000000000000     
 augmentation electrons   279.02613149437502     
 soft         electrons   0.0000000000000000     
 augmentation electrons   279.02613149437502     
 soft         electrons   0.0000000000000000     
 augmentation electrons   279.02613149437502     
 soft         electrons   0.0000000000000000     
 augmentation electrons   279.02613149437502     
 soft         electrons   0.0000000000000000     
 augmentation electrons   279.02613149437502     
 soft         electrons   0.0000000000000000     
 augmentation electrons   279.02613149437502     
 soft         electrons   0.0000000000000000     
 augmentation electrons   279.02613149437502     
 soft         electrons   0.0000000000000000     
 augmentation electrons   279.02613149437502     
 soft         electrons   0.0000000000000000     
 augmentation electrons   279.02613149437502     
 soft         electrons   0.0000000000000000     
 augmentation electrons   279.02613149437502     
 soft         electrons   0.0000000000000000     
 augmentation electrons   279.02613149437502     
 soft         electrons   0.0000000000000000     
 augmentation electrons   279.02613149437502     
 soft         electrons   0.0000000000000000     
 augmentation electrons   279.02613149437502     
 soft         electrons   0.0000000000000000     
 augmentation electrons   279.02613149437502     
 soft         electrons   0.0000000000000000     
 augmentation electrons   279.02613149437502     
 soft         electrons   0.0000000000000000     
 augmentation electrons   279.02613149437502     
 soft         electrons   0.0000000000000000     
 augmentation electrons   279.02613149437502     
 soft         electrons   0.0000000000000000     
 augmentation electrons   279.02613149437502     
 soft         electrons   0.0000000000000000     
 augmentation electrons   279.02613149437502     
 soft         electrons   0.0000000000000000     
 augmentation electrons   279.02613149437502     
 soft         electrons   0.0000000000000000     
 augmentation electrons   279.02613149437502     
 soft         electrons   0.0000000000000000     
 augmentation electrons   279.02613149437502     
 soft         electrons   0.0000000000000000     
 augmentation electrons   279.02613149437502     
 soft         electrons   0.0000000000000000     
 augmentation electrons   279.02613149437502     
 soft         electrons   0.0000000000000000     
 augmentation electrons   279.02613149437502     
 soft         electrons   0.0000000000000000     
 augmentation electrons   279.02613149437502     
 soft         electrons   0.0000000000000000     
 augmentation electrons   279.02613149437502     
 soft         electrons   0.0000000000000000     
 augmentation electrons   279.02613149437502     
 soft         electrons   0.0000000000000000     
 augmentation electrons   279.02613149437502     
 soft         electrons   0.0000000000000000     
 augmentation electrons   279.02613149437502     
 soft         electrons   0.0000000000000000     
 augmentation electrons   279.02613149437502     
 soft         electrons   0.0000000000000000     
 augmentation electrons   279.02613149437502     
 soft         electrons   0.0000000000000000     
 augmentation electrons   279.02613149437502     
 soft         electrons   0.0000000000000000     
 augmentation electrons   279.02613149437502     
 soft         electrons   0.0000000000000000     
 augmentation electrons   279.02613149437502     
 soft         electrons   0.0000000000000000     
 augmentation electrons   279.02613149437502     
 soft         electrons   0.0000000000000000     
 augmentation electrons   279.02613149437502     
 soft         electrons   0.0000000000000000     
 augmentation electrons   279.02613149437502     
 soft         electrons   0.0000000000000000     
 augmentation electrons   279.02613149437502     
 soft         electrons   0.0000000000000000     
 augmentation electrons   279.02613149437502     
 soft         electrons   0.0000000000000000     
 augmentation electrons   279.02613149437502     
 soft         electrons   0.0000000000000000     
 augmentation electrons   279.02613149437502     
 soft         electrons   0.0000000000000000     
 augmentation electrons   279.02613149437502     
 soft         electrons   0.0000000000000000     
 augmentation electrons   279.02613149437502     
 soft         electrons   0.0000000000000000     
 augmentation electrons   279.02613149437502     
 augmentation electrons   279.02613149437502     
 soft         electrons   0.0000000000000000     
 soft         electrons   0.0000000000000000     
 augmentation electrons   279.02613149437502     
 soft         electrons   0.0000000000000000     
 augmentation electrons   279.02613149437502     
 soft         electrons   0.0000000000000000     
 augmentation electrons   279.02613149437502     
 soft         electrons   0.0000000000000000     
 augmentation electrons   279.02613149437502     
 soft         electrons   0.0000000000000000     
 augmentation electrons   279.02613149437502     
 soft         electrons   0.0000000000000000     
 augmentation electrons   279.02613149437502     
 soft         electrons   0.0000000000000000     
 augmentation electrons   279.02613149437502     
 soft         electrons   0.0000000000000000     
 augmentation electrons   279.02613149437502     
 soft         electrons   0.0000000000000000     
 augmentation electrons   279.02613149437502     
 soft         electrons   0.0000000000000000     
 augmentation electrons   279.02613149437502     
 soft         electrons   0.0000000000000000     
 augmentation electrons   279.02613149437502     
 soft         electrons   0.0000000000000000     
 total        electrons   279.02613149437502     
 augmentation electrons   279.02613149437502     
 soft         electrons   0.0000000000000000     
 total        electrons   279.02613149437502     
 augmentation electrons   279.02613149437502     
 soft         electrons   0.0000000000000000     
 total        electrons   279.02613149437502     
 augmentation electrons   279.02613149437502     
 soft         electrons   0.0000000000000000     
 total        electrons   279.02613149437502     
 augmentation electrons   279.02613149437502     
 soft         electrons   0.0000000000000000     
 total        electrons   279.02613149437502     
 augmentation electrons   279.02613149437502     
 soft         electrons   0.0000000000000000     
 total        electrons   279.02613149437502     
 augmentation electrons   279.02613149437502     
 soft         electrons   0.0000000000000000     
 total        electrons   279.02613149437502     
 augmentation electrons   279.02613149437502     
 soft         electrons   0.0000000000000000     
 total        electrons   279.02613149437502     
 augmentation electrons   279.02613149437502     
 soft         electrons   0.0000000000000000     
 total        electrons   279.02613149437502     
 total        electrons   279.02613149437502     
 total        electrons   279.02613149437502     
 total        electrons   279.02613149437502     
 total        electrons   279.02613149437502     
 total        electrons   279.02613149437502     
 total        electrons   279.02613149437502     
 total        electrons   279.02613149437502     
 total        electrons   279.02613149437502     
 total        electrons   279.02613149437502     
 total        electrons   279.02613149437502     
 augmentation electrons   279.02613149437502     
 soft         electrons   0.0000000000000000     
 total        electrons   279.02613149437502     
 total        electrons   279.02613149437502     
 total        electrons   279.02613149437502     
 total        electrons   279.02613149437502     
 total        electrons   279.02613149437502     
 augmentation electrons   279.02613149437502     
 soft         electrons   0.0000000000000000     
 total        electrons   279.02613149437502     
 total        electrons   279.02613149437502     
 total        electrons   279.02613149437502     
 total        electrons   279.02613149437502     
 total        electrons   279.02613149437502     
 augmentation electrons   279.02613149437502     
 soft         electrons   0.0000000000000000     
 total        electrons   279.02613149437502     
 total        electrons   279.02613149437502     
 total        electrons   279.02613149437502     
 total        electrons   279.02613149437502     
 total        electrons   279.02613149437502     
 total        electrons   279.02613149437502     
 total        electrons   279.02613149437502     
 total        electrons   279.02613149437502     
 total        electrons   279.02613149437502     
 total        electrons   279.02613149437502     
 total        electrons   279.02613149437502     
 total        electrons   279.02613149437502     
 total        electrons   279.02613149437502     
 total        electrons   279.02613149437502     
 total        electrons   279.02613149437502     
 augmentation electrons   279.02613149437502     
 soft         electrons   0.0000000000000000     
 total        electrons   279.02613149437502     
 total        electrons   279.02613149437502     
 total        electrons   279.02613149437502     
 total        electrons   279.02613149437502     
 total        electrons   279.02613149437502     
 total        electrons   279.02613149437502     
 total        electrons   279.02613149437502     
 total        electrons   279.02613149437502     
 total        electrons   279.02613149437502     
 total        electrons   279.02613149437502     
 total        electrons   279.02613149437502     
 total        electrons   279.02613149437502     
 total        electrons   279.02613149437502     
 total        electrons   279.02613149437502     
 total        electrons   279.02613149437502     
 total        electrons   279.02613149437502     
 total        electrons   279.02613149437502     
 total        electrons   279.02613149437502     
 total        electrons   279.02613149437502     
 total        electrons   279.02613149437502     
 total        electrons   279.02613149437502     
 total        electrons   279.02613149437502     
 total        electrons   279.02613149437502     
 total        electrons   279.02613149437502     
 total        electrons   279.02613149437502     
 total        electrons   279.02613149437502     
 total        electrons   279.02613149437502     
 total        electrons   279.02613149437502     
 augmentation electrons   864.17172981569820     
 soft         electrons   0.0000000000000000     
 augmentation electrons   864.17172981569820     
 soft         electrons   0.0000000000000000     
 augmentation electrons   864.17172981569820     
 soft         electrons   0.0000000000000000     
 augmentation electrons   864.17172981569820     
 soft         electrons   0.0000000000000000     
 augmentation electrons   864.17172981569820     
 soft         electrons   0.0000000000000000     
 augmentation electrons   864.17172981569820     
 soft         electrons   0.0000000000000000     
 augmentation electrons   864.17172981569820     
 soft         electrons   0.0000000000000000     
 augmentation electrons   864.17172981569820     
 soft         electrons   0.0000000000000000     
 augmentation electrons   864.17172981569820     
 soft         electrons   0.0000000000000000     
 augmentation electrons   864.17172981569820     
 soft         electrons   0.0000000000000000     
 augmentation electrons   864.17172981569820     
 soft         electrons   0.0000000000000000     
 augmentation electrons   864.17172981569820     
 soft         electrons   0.0000000000000000     
 augmentation electrons   864.17172981569820     
 soft         electrons   0.0000000000000000     
 augmentation electrons   864.17172981569820     
 soft         electrons   0.0000000000000000     
 augmentation electrons   864.17172981569820     
 soft         electrons   0.0000000000000000     
 augmentation electrons   864.17172981569820     
 soft         electrons   0.0000000000000000     
 augmentation electrons   864.17172981569820     
 soft         electrons   0.0000000000000000     
 augmentation electrons   864.17172981569820     
 soft         electrons   0.0000000000000000     
 augmentation electrons   864.17172981569820     
 soft         electrons   0.0000000000000000     
 augmentation electrons   864.17172981569820     
 soft         electrons   0.0000000000000000     
 augmentation electrons   864.17172981569820     
 soft         electrons   0.0000000000000000     
 augmentation electrons   864.17172981569820     
 soft         electrons   0.0000000000000000     
 augmentation electrons   864.17172981569820     
 soft         electrons   0.0000000000000000     
 augmentation electrons   864.17172981569820     
 soft         electrons   0.0000000000000000     
 augmentation electrons   864.17172981569820     
 augmentation electrons   864.17172981569820     
 soft         electrons   0.0000000000000000     
 augmentation electrons   864.17172981569820     
 soft         electrons   0.0000000000000000     
 augmentation electrons   864.17172981569820     
 soft         electrons   0.0000000000000000     
 augmentation electrons   864.17172981569820     
 soft         electrons   0.0000000000000000     
 augmentation electrons   864.17172981569820     
 soft         electrons   0.0000000000000000     
 augmentation electrons   864.17172981569820     
 soft         electrons   0.0000000000000000     
 augmentation electrons   864.17172981569820     
 soft         electrons   0.0000000000000000     
 augmentation electrons   864.17172981569820     
 soft         electrons   0.0000000000000000     
 augmentation electrons   864.17172981569820     
 soft         electrons   0.0000000000000000     
 augmentation electrons   864.17172981569820     
 soft         electrons   0.0000000000000000     
 augmentation electrons   864.17172981569820     
 soft         electrons   0.0000000000000000     
 augmentation electrons   864.17172981569820     
 soft         electrons   0.0000000000000000     
 augmentation electrons   864.17172981569820     
 soft         electrons   0.0000000000000000     
 augmentation electrons   864.17172981569820     
 soft         electrons   0.0000000000000000     
 augmentation electrons   864.17172981569820     
 soft         electrons   0.0000000000000000     
 augmentation electrons   864.17172981569820     
 soft         electrons   0.0000000000000000     
 augmentation electrons   864.17172981569820     
 soft         electrons   0.0000000000000000     
 augmentation electrons   864.17172981569820     
 soft         electrons   0.0000000000000000     
 augmentation electrons   864.17172981569820     
 soft         electrons   0.0000000000000000     
 augmentation electrons   864.17172981569820     
 soft         electrons   0.0000000000000000     
 augmentation electrons   864.17172981569820     
 soft         electrons   0.0000000000000000     
 augmentation electrons   864.17172981569820     
 soft         electrons   0.0000000000000000     
 augmentation electrons   864.17172981569820     
 soft         electrons   0.0000000000000000     
 augmentation electrons   864.17172981569820     
 soft         electrons   0.0000000000000000     
 augmentation electrons   864.17172981569820     
 soft         electrons   0.0000000000000000     
 augmentation electrons   864.17172981569820     
 soft         electrons   0.0000000000000000     
 augmentation electrons   864.17172981569820     
 soft         electrons   0.0000000000000000     
 augmentation electrons   864.17172981569820     
 soft         electrons   0.0000000000000000     
 augmentation electrons   864.17172981569820     
 soft         electrons   0.0000000000000000     
 augmentation electrons   864.17172981569820     
 soft         electrons   0.0000000000000000     
 augmentation electrons   864.17172981569820     
 soft         electrons   0.0000000000000000     
 augmentation electrons   864.17172981569820     
 soft         electrons   0.0000000000000000     
 augmentation electrons   864.17172981569820     
 soft         electrons   0.0000000000000000     
 augmentation electrons   864.17172981569820     
 soft         electrons   0.0000000000000000     
 augmentation electrons   864.17172981569820     
 soft         electrons   0.0000000000000000     
 augmentation electrons   864.17172981569820     
 soft         electrons   0.0000000000000000     
 augmentation electrons   864.17172981569820     
 soft         electrons   0.0000000000000000     
 augmentation electrons   864.17172981569820     
 soft         electrons   0.0000000000000000     
 augmentation electrons   864.17172981569820     
 soft         electrons   0.0000000000000000     
 augmentation electrons   864.17172981569820     
 soft         electrons   0.0000000000000000     
 augmentation electrons   864.17172981569820     
 soft         electrons   0.0000000000000000     
 augmentation electrons   864.17172981569820     
 soft         electrons   0.0000000000000000     
 augmentation electrons   864.17172981569820     
 soft         electrons   0.0000000000000000     
 augmentation electrons   864.17172981569820     
 soft         electrons   0.0000000000000000     
 augmentation electrons   864.17172981569820     
 soft         electrons   0.0000000000000000     
 augmentation electrons   864.17172981569820     
 soft         electrons   0.0000000000000000     
 augmentation electrons   864.17172981569820     
 soft         electrons   0.0000000000000000     
 soft         electrons   0.0000000000000000     
 total        electrons   864.17172981569820     
 total        electrons   864.17172981569820     
 total        electrons   864.17172981569820     
 total        electrons   864.17172981569820     
 total        electrons   864.17172981569820     
 total        electrons   864.17172981569820     
 total        electrons   864.17172981569820     
 total        electrons   864.17172981569820     
 total        electrons   864.17172981569820     
 total        electrons   864.17172981569820     
 total        electrons   864.17172981569820     
 total        electrons   864.17172981569820     
 total        electrons   864.17172981569820     
 total        electrons   864.17172981569820     
 total        electrons   864.17172981569820     
 total        electrons   864.17172981569820     
 total        electrons   864.17172981569820     
 total        electrons   864.17172981569820     
 total        electrons   864.17172981569820     
 total        electrons   864.17172981569820     
 total        electrons   864.17172981569820     
 total        electrons   864.17172981569820     
 total        electrons   864.17172981569820     
 total        electrons   864.17172981569820     
 total        electrons   864.17172981569820     
 total        electrons   864.17172981569820     
 total        electrons   864.17172981569820     
 total        electrons   864.17172981569820     
 total        electrons   864.17172981569820     
 total        electrons   864.17172981569820     
 total        electrons   864.17172981569820     
 total        electrons   864.17172981569820     
 total        electrons   864.17172981569820     
 total        electrons   864.17172981569820     
 total        electrons   864.17172981569820     
 total        electrons   864.17172981569820     
 total        electrons   864.17172981569820     
 total        electrons   864.17172981569820     
 total        electrons   864.17172981569820     
 total        electrons   864.17172981569820     
 total        electrons   864.17172981569820     
 total        electrons   864.17172981569820     
 total        electrons   864.17172981569820     
 total        electrons   864.17172981569820     
 total        electrons   864.17172981569820     
 total        electrons   864.17172981569820     
 total        electrons   864.17172981569820     
 total        electrons   864.17172981569820     
 total        electrons   864.17172981569820     
 total        electrons   864.17172981569820     
 total        electrons   864.17172981569820     
 total        electrons   864.17172981569820     
 total        electrons   864.17172981569820     
 total        electrons   864.17172981569820     
 total        electrons   864.17172981569820     
 total        electrons   864.17172981569820     
 total        electrons   864.17172981569820     
 total        electrons   864.17172981569820     
 total        electrons   864.17172981569820     
 total        electrons   864.17172981569820     
 total        electrons   864.17172981569820     
 total        electrons   864.17172981569820     
 total        electrons   864.17172981569820     
 total        electrons   864.17172981569820     
 total        electrons   864.17172981569820     
 total        electrons   864.17172981569820     
 total        electrons   864.17172981569820     
 total        electrons   864.17172981569820     
 total        electrons   864.17172981569820     
 total        electrons   864.17172981569820     
 total        electrons   864.17172981569820     
 total        electrons   864.17172981569820     
 entering main loop
       N       E                     dE             d eps       ncg     rms          rms(c)
DAV:   1     0.305098032563E+04    0.30510E+04   -0.95063E+04  8464   0.127E+03
DAV:   2     0.551667087440E+02   -0.29958E+04   -0.27573E+04  9024   0.332E+02
DAV:   3    -0.638981764353E+03   -0.69415E+03   -0.66451E+03 11752   0.194E+02
DAV:   4    -0.707666432206E+03   -0.68685E+02   -0.65119E+02 13928   0.669E+01
DAV:   5    -0.711634804720E+03   -0.39684E+01   -0.37684E+01 14176   0.167E+01    0.142E+02
RMM:   6    -0.654335803904E+03    0.57299E+02   -0.14105E+03  9619   0.112E+02    0.774E+01
RMM:   7    -0.707919471993E+03   -0.53584E+02   -0.68935E+02 10289   0.880E+01    0.548E+01
RMM:   8    -0.625249380632E+03    0.82670E+02   -0.11464E+02  9008   0.378E+01    0.352E+01
RMM:   9    -0.607091175128E+03    0.18158E+02   -0.48605E+01  8647   0.250E+01    0.282E+01
RMM:  10    -0.592358762537E+03    0.14732E+02   -0.31768E+01 10403   0.143E+01    0.210E+01
RMM:  11    -0.589671545947E+03    0.26872E+01   -0.76276E+00  8892   0.884E+00    0.171E+01
RMM:  12    -0.589676281873E+03   -0.47359E-02   -0.37858E+00 11556   0.266E+00    0.155E+01
RMM:  13    -0.589568064571E+03    0.10822E+00   -0.63302E-01  9792   0.221E+00    0.140E+01
RMM:  14    -0.588912898704E+03    0.65517E+00   -0.19436E+00  9507   0.433E+00    0.107E+01
RMM:  15    -0.588636284589E+03    0.27661E+00   -0.42247E+00  8673   0.671E+00    0.729E+00
RMM:  16    -0.588076739886E+03    0.55954E+00   -0.14630E+00  9291   0.378E+00    0.279E+00
RMM:  17    -0.588086417761E+03   -0.96779E-02   -0.87145E-01 11336   0.136E+00    0.246E+00
RMM:  18    -0.588066255791E+03    0.20162E-01   -0.15133E-01  9925   0.100E+00    0.220E+00
RMM:  19    -0.588030717700E+03    0.35538E-01   -0.15003E-01 10602   0.944E-01    0.131E+00
RMM:  20    -0.588027015594E+03    0.37021E-02   -0.11576E-01  9437   0.866E-01    0.114E+00
RMM:  21    -0.588017182461E+03    0.98331E-02   -0.61648E-02 10436   0.618E-01    0.869E-01
RMM:  22    -0.588012405599E+03    0.47769E-02   -0.18286E-02  9094   0.404E-01    0.622E-01
RMM:  23    -0.588012755169E+03   -0.34957E-03   -0.11206E-02  9901   0.275E-01    0.414E-01
RMM:  24    -0.588012416734E+03    0.33843E-03   -0.60289E-03  9673   0.212E-01    0.236E-01
RMM:  25    -0.588012931236E+03   -0.51450E-03   -0.45132E-03 11262   0.138E-01    0.162E-01
RMM:  26    -0.588013705671E+03   -0.77443E-03   -0.24383E-03  9282   0.142E-01    0.176E-01
RMM:  27    -0.588014634049E+03   -0.92838E-03   -0.26138E-03 10932   0.101E-01    0.158E-01
RMM:  28    -0.588014955127E+03   -0.32108E-03   -0.10371E-03  9738   0.968E-02    0.767E-02
RMM:  29    -0.588015942407E+03   -0.98728E-03   -0.71314E-04 11048   0.535E-02    0.769E-02
RMM:  30    -0.588016374072E+03   -0.43167E-03   -0.21923E-04  8661   0.439E-02    0.509E-02
RMM:  31    -0.588016745092E+03   -0.37102E-03   -0.15750E-04 10712   0.252E-02    0.364E-02
RMM:  32    -0.588016956288E+03   -0.21120E-03   -0.92031E-05 10957   0.171E-02    0.308E-02
RMM:  33    -0.588017025370E+03   -0.69082E-04   -0.41631E-05  8999   0.159E-02    0.251E-02
RMM:  34    -0.588017137682E+03   -0.11231E-03   -0.41276E-05  9755   0.126E-02    0.121E-02
RMM:  35    -0.588017237879E+03   -0.10020E-03   -0.37447E-05  9386   0.103E-02    0.166E-02
RMM:  36    -0.588017302318E+03   -0.64439E-04   -0.15522E-05  7404   0.124E-02    0.108E-02
RMM:  37    -0.588017350004E+03   -0.47686E-04   -0.82273E-06  6955   0.641E-03    0.752E-03
RMM:  38    -0.588017473421E+03   -0.12342E-03   -0.74078E-06  6365   0.723E-03    0.924E-03
RMM:  39    -0.588017621253E+03   -0.14783E-03   -0.13681E-05  7302   0.819E-03    0.103E-02
RMM:  40    -0.588017680299E+03   -0.59046E-04   -0.57312E-06  6189   0.664E-03    0.335E-03
RMM:  41    -0.588017717199E+03   -0.36900E-04   -0.56352E-06  6437   0.375E-03    0.618E-03
RMM:  42    -0.588017739483E+03   -0.22284E-04   -0.17558E-06  5548   0.372E-03    0.257E-03
RMM:  43    -0.588017757834E+03   -0.18351E-04   -0.16473E-06  5484   0.187E-03    0.125E-03
RMM:  44    -0.588017766666E+03   -0.88327E-05   -0.66319E-07  5032   0.196E-03    0.122E-03
RMM:  45    -0.588017771127E+03   -0.44603E-05   -0.49970E-07  4638   0.141E-03    0.165E-03
RMM:  46    -0.588017774289E+03   -0.31621E-05   -0.38565E-07  4443   0.189E-03    0.300E-04
RMM:  47    -0.588017775782E+03   -0.14932E-05   -0.22538E-07  2835   0.753E-04    0.494E-04
RMM:  48    -0.588017776183E+03   -0.40059E-06   -0.11129E-07  2926   0.815E-04
   1 F= -.58801778E+03 E0= -.58802058E+03  d E =-.588018E+03
 curvature:   0.00 expect dE= 0.000E+00 dE for cont linesearch  0.000E+00
 trial: gam= 0.00000 g(F)=  0.833E-01 g(S)=  0.000E+00 ort = 0.000E+00 (trialstep = 0.100E+01)
 search vector abs. value=  0.833E-01
 bond charge predicted
       N       E                     dE             d eps       ncg     rms          rms(c)
DAV:   1    -0.588094951065E+03   -0.77175E-01   -0.13362E+00  9232   0.216E+00    0.331E-01
RMM:   2    -0.588095673405E+03   -0.72234E-03   -0.24969E-02  8849   0.507E-01    0.238E-01
RMM:   3    -0.588100003332E+03   -0.43299E-02   -0.12130E-02 10495   0.298E-01    0.608E-01
RMM:   4    -0.588096931914E+03    0.30714E-02   -0.48715E-03  9383   0.227E-01    0.333E-01
RMM:   5    -0.588095817816E+03    0.11141E-02   -0.25723E-03  9844   0.135E-01    0.186E-01
RMM:   6    -0.588095543697E+03    0.27412E-03   -0.11498E-03  9772   0.947E-02    0.109E-01
RMM:   7    -0.588095445691E+03    0.98007E-04   -0.50129E-04  8971   0.706E-02    0.756E-02
RMM:   8    -0.588095371285E+03    0.74406E-04   -0.21837E-04 10216   0.384E-02    0.279E-02
RMM:   9    -0.588095384254E+03   -0.12969E-04   -0.11651E-04  9835   0.270E-02    0.388E-02
RMM:  10    -0.588095367987E+03    0.16267E-04   -0.36536E-05  8236   0.192E-02    0.154E-02
RMM:  11    -0.588095369103E+03   -0.11163E-05   -0.22405E-05  7633   0.104E-02    0.163E-02
RMM:  12    -0.588095367952E+03    0.11511E-05   -0.86712E-06  6439   0.926E-03    0.101E-02
RMM:  13    -0.588095368163E+03   -0.21140E-06   -0.57622E-06  6346   0.719E-03
   2 F= -.58809537E+03 E0= -.58809821E+03  d E =-.775920E-01
 trial-energy change:   -0.077592  1 .order   -0.076927   -0.083309   -0.070545
 step:   3.6009(harm=  6.5270)  dis= 0.01396  next Energy=  -588.198803 (dE=-0.181E+00)
 bond charge predicted
       N       E                     dE             d eps       ncg     rms          rms(c)
DAV:   1    -0.588198763132E+03   -0.10340E+00   -0.94373E+00  8880   0.567E+00    0.107E+00
RMM:   2    -0.588194607847E+03    0.41553E-02   -0.18696E-01  9025   0.137E+00    0.736E-01
RMM:   3    -0.588234631121E+03   -0.40023E-01   -0.11250E-01 10293   0.949E-01    0.191E+00
RMM:   4    -0.588196527846E+03    0.38103E-01   -0.50634E-02  9085   0.764E-01    0.648E-01
RMM:   5    -0.588195704222E+03    0.82362E-03   -0.20508E-02 10590   0.325E-01    0.629E-01
RMM:   6    -0.588192039847E+03    0.36644E-02   -0.92802E-03  9213   0.285E-01    0.371E-01
RMM:   7    -0.588190540307E+03    0.14995E-02   -0.45334E-03  9501   0.211E-01    0.194E-01
RMM:   8    -0.588190179947E+03    0.36036E-03   -0.24049E-03 10506   0.120E-01    0.110E-01
RMM:   9    -0.588190193586E+03   -0.13639E-04   -0.94751E-04  9375   0.881E-02    0.108E-01
RMM:  10    -0.588190077191E+03    0.11640E-03   -0.31519E-04  8928   0.564E-02    0.584E-02
RMM:  11    -0.588190058865E+03    0.18326E-04   -0.16433E-04  9537   0.339E-02    0.404E-02
RMM:  12    -0.588190059990E+03   -0.11251E-05   -0.93885E-05  9649   0.256E-02    0.348E-02
RMM:  13    -0.588190053964E+03    0.60259E-05   -0.47640E-05  8675   0.214E-02    0.178E-02
RMM:  14    -0.588190054473E+03   -0.50951E-06   -0.24930E-05  8449   0.991E-03    0.846E-03
RMM:  15    -0.588190056927E+03   -0.24538E-05   -0.77185E-06  6545   0.728E-03    0.828E-03
RMM:  16    -0.588190060580E+03   -0.36526E-05   -0.30456E-06  5861   0.579E-03    0.326E-03
RMM:  17    -0.588190064480E+03   -0.39005E-05   -0.19907E-06  5590   0.352E-03    0.265E-03
RMM:  18    -0.588190068379E+03   -0.38987E-05   -0.10762E-06  5241   0.381E-03    0.279E-03
RMM:  19    -0.588190071951E+03   -0.35723E-05   -0.73909E-07  5212   0.306E-03    0.201E-03
RMM:  20    -0.588190075833E+03   -0.38820E-05   -0.52291E-07  5148   0.224E-03    0.126E-03
RMM:  21    -0.588190080366E+03   -0.45326E-05   -0.54188E-07  5064   0.172E-03    0.874E-04
RMM:  22    -0.588190083369E+03   -0.30034E-05   -0.36142E-07  4863   0.153E-03    0.879E-04
RMM:  23    -0.588190086020E+03   -0.26504E-05   -0.33184E-07  4778   0.153E-03    0.109E-03
RMM:  24    -0.588190089117E+03   -0.30972E-05   -0.39250E-07  4633   0.140E-03    0.498E-04
RMM:  25    -0.588190091160E+03   -0.20431E-05   -0.28368E-07  3998   0.116E-03    0.366E-04
RMM:  26    -0.588190092358E+03   -0.11984E-05   -0.19169E-07  3795   0.106E-03    0.314E-04
RMM:  27    -0.588190093077E+03   -0.71899E-06   -0.12855E-07  3308   0.889E-04
   3 F= -.58819009E+03 E0= -.58819299E+03  d E =-.172317E+00
 curvature:  -2.35 expect dE=-0.615E-01 dE for cont linesearch -0.390E-02
 ZBRENT: interpolating
 opt :   3.2293  next Energy=  -588.192279 (dE=-0.175E+00)
 bond charge predicted
       N       E                     dE             d eps       ncg     rms          rms(c)
DAV:   1    -0.588191463615E+03   -0.13713E-02   -0.20420E-01  8920   0.839E-01    0.167E-01
RMM:   2    -0.588191304278E+03    0.15934E-03   -0.43131E-03  9183   0.212E-01    0.116E-01
RMM:   3    -0.588192243423E+03   -0.93914E-03   -0.28743E-03 10167   0.154E-01    0.301E-01
RMM:   4    -0.588191254094E+03    0.98933E-03   -0.12605E-03  9030   0.122E-01    0.710E-02
RMM:   5    -0.588191359804E+03   -0.10571E-03   -0.48065E-04 10472   0.521E-02    0.106E-01
RMM:   6    -0.588191252495E+03    0.10731E-03   -0.19019E-04  9409   0.405E-02    0.721E-02
RMM:   7    -0.588191193783E+03    0.58711E-04   -0.11636E-04  9349   0.343E-02    0.293E-02
RMM:   8    -0.588191186473E+03    0.73103E-05   -0.57006E-05 10121   0.191E-02    0.180E-02
RMM:   9    -0.588191186101E+03    0.37254E-06   -0.24663E-05  8652   0.137E-02    0.153E-02
RMM:  10    -0.588191184103E+03    0.19971E-05   -0.77582E-06  6551   0.921E-03    0.102E-02
RMM:  11    -0.588191183477E+03    0.62639E-06   -0.35994E-06  6032   0.668E-03
   4 F= -.58819118E+03 E0= -.58819407E+03  d E =-.173407E+00
 curvature:  -1.32 expect dE=-0.225E-01 dE for cont linesearch -0.479E-03
 ZBRENT: interpolating
 opt :   3.3478  next Energy=  -588.191510 (dE=-0.174E+00)
 bond charge predicted
       N       E                     dE             d eps       ncg     rms          rms(c)
DAV:   1    -0.588191552848E+03   -0.36874E-03   -0.20737E-02  8872   0.268E-01    0.529E-02
RMM:   2    -0.588191544008E+03    0.88405E-05   -0.45694E-04  9110   0.712E-02    0.402E-02
RMM:   3    -0.588191624537E+03   -0.80530E-04   -0.27685E-04  9829   0.512E-02    0.908E-02
RMM:   4    -0.588191538806E+03    0.85732E-04   -0.12500E-04  9373   0.370E-02    0.262E-02
RMM:   5    -0.588191538143E+03    0.66308E-06   -0.42132E-05  8864   0.207E-02    0.224E-02
RMM:   6    -0.588191543226E+03   -0.50834E-05   -0.24331E-05  8583   0.113E-02    0.324E-02
RMM:   7    -0.588191531184E+03    0.12042E-04   -0.10013E-05  6743   0.106E-02    0.899E-03
RMM:   8    -0.588191530629E+03    0.55463E-06   -0.65440E-06  6991   0.640E-03
   5 F= -.58819153E+03 E0= -.58819442E+03  d E =-.173754E+00
 curvature:  -0.90 expect dE=-0.170E-01 dE for cont linesearch -0.491E-06
 trial: gam= 0.22471 g(F)=  0.189E-01 g(S)=  0.000E+00 ort = 0.214E-03 (trialstep = 0.147E+01)
 search vector abs. value=  0.232E-01
 bond charge predicted
       N       E                     dE             d eps       ncg     rms          rms(c)
DAV:   1    -0.588214984653E+03   -0.23453E-01   -0.80609E-01  8600   0.171E+00    0.289E-01
RMM:   2    -0.588216679954E+03   -0.16953E-02   -0.12648E-02  9028   0.379E-01    0.342E-01
RMM:   3    -0.588217347183E+03   -0.66723E-03   -0.45292E-03  9999   0.216E-01    0.373E-01
RMM:   4    -0.588219088988E+03   -0.17418E-02   -0.47495E-03  9582   0.186E-01    0.524E-01
RMM:   5    -0.588215804610E+03    0.32844E-02   -0.26485E-03  8675   0.181E-01    0.930E-02
RMM:   6    -0.588215846207E+03   -0.41597E-04   -0.10238E-03  9811   0.814E-02    0.966E-02
RMM:   7    -0.588215761457E+03    0.84750E-04   -0.31963E-04  8694   0.581E-02    0.482E-02
RMM:   8    -0.588215734222E+03    0.27236E-04   -0.10928E-04  9859   0.234E-02    0.218E-02
RMM:   9    -0.588215731891E+03    0.23309E-05   -0.35606E-05  8261   0.132E-02    0.149E-02
RMM:  10    -0.588215730439E+03    0.14521E-05   -0.12924E-05  7665   0.873E-03    0.955E-03
RMM:  11    -0.588215730717E+03   -0.27882E-06   -0.69159E-06  6457   0.802E-03
   6 F= -.58821573E+03 E0= -.58821862E+03  d E =-.242001E-01
 trial-energy change:   -0.024200  1 .order   -0.024212   -0.027895   -0.020529
 step:   5.5649(harm=  5.5649)  dis= 0.12205  next Energy=  -588.244347 (dE=-0.528E-01)
 bond charge predicted
       N       E                     dE             d eps       ncg     rms          rms(c)
DAV:   1    -0.588240263228E+03   -0.24533E-01   -0.60486E+00  8496   0.468E+00    0.727E-01
RMM:   2    -0.588252583104E+03   -0.12320E-01   -0.91455E-02  8997   0.102E+00    0.898E-01
RMM:   3    -0.588255426550E+03   -0.28434E-02   -0.30285E-02  9984   0.557E-01    0.905E-01
RMM:   4    -0.588268924597E+03   -0.13498E-01   -0.31371E-02  9555   0.472E-01    0.136E+00
RMM:   5    -0.588246551172E+03    0.22373E-01   -0.16623E-02  8712   0.452E-01    0.234E-01
RMM:   6    -0.588247195647E+03   -0.64448E-03   -0.74889E-03  9593   0.228E-01    0.285E-01
RMM:   7    -0.588246339977E+03    0.85567E-03   -0.22153E-03  8731   0.153E-01    0.108E-01
RMM:   8    -0.588246242432E+03    0.97544E-04   -0.89371E-04  9935   0.631E-02    0.665E-02
RMM:   9    -0.588246205255E+03    0.37177E-04   -0.22111E-04  9625   0.352E-02    0.328E-02
RMM:  10    -0.588246202030E+03    0.32253E-05   -0.96503E-05 10647   0.202E-02    0.229E-02
RMM:  11    -0.588246204465E+03   -0.24354E-05   -0.41650E-05  8688   0.169E-02    0.249E-02
RMM:  12    -0.588246201901E+03    0.25641E-05   -0.17800E-05  7705   0.117E-02    0.156E-02
RMM:  13    -0.588246202516E+03   -0.61465E-06   -0.92166E-06  6654   0.965E-03
   7 F= -.58824620E+03 E0= -.58824907E+03  d E =-.546719E-01
 curvature:  -3.41 expect dE=-0.588E-02 dE for cont linesearch -0.147E-03
 ZBRENT: extrapolating
 opt :   5.8812  next Energy=  -588.246361 (dE=-0.548E-01)
 bond charge predicted
       N       E                     dE             d eps       ncg     rms          rms(c)
DAV:   1    -0.588246329991E+03   -0.12809E-03   -0.36885E-02  9864   0.363E-01    0.533E-02
RMM:   2    -0.588246404964E+03   -0.74973E-04   -0.55724E-04  8626   0.858E-02    0.665E-02
RMM:   3    -0.588246416371E+03   -0.11407E-04   -0.18872E-04  9865   0.446E-02    0.642E-02
RMM:   4    -0.588246495256E+03   -0.78884E-04   -0.13254E-04  9497   0.326E-02    0.946E-02
RMM:   5    -0.588246383464E+03    0.11179E-03   -0.76892E-05  8759   0.304E-02    0.242E-02
RMM:   6    -0.588246385806E+03   -0.23416E-05   -0.39190E-05  8701   0.199E-02    0.229E-02
RMM:   7    -0.588246382671E+03    0.31353E-05   -0.15743E-05  7300   0.128E-02    0.107E-02
RMM:   8    -0.588246382486E+03    0.18463E-06   -0.57481E-06  6238   0.717E-03
   8 F= -.58824638E+03 E0= -.58824925E+03  d E =-.548519E-01
 curvature:  -3.67 expect dE=-0.774E-02 dE for cont linesearch -0.157E-06
 trial: gam= 0.19344 g(F)=  0.211E-02 g(S)=  0.000E+00 ort = 0.316E-04 (trialstep = 0.235E+01)
 search vector abs. value=  0.299E-02
 bond charge predicted
       N       E                     dE             d eps       ncg     rms          rms(c)
DAV:   1    -0.588248022281E+03   -0.16396E-02   -0.27810E-01  8568   0.102E+00    0.169E-01
RMM:   2    -0.588248149014E+03   -0.12673E-03   -0.55074E-03  9128   0.247E-01    0.150E-01
RMM:   3    -0.588248787389E+03   -0.63837E-03   -0.25755E-03  9854   0.159E-01    0.267E-01
RMM:   4    -0.588248143577E+03    0.64381E-03   -0.11340E-03  9608   0.106E-01    0.120E-01
RMM:   5    -0.588248142442E+03    0.11356E-05   -0.43145E-04  9498   0.626E-02    0.108E-01
RMM:   6    -0.588248067101E+03    0.75340E-04   -0.30369E-04  9949   0.446E-02    0.750E-02
RMM:   7    -0.588247983874E+03    0.83227E-04   -0.13199E-04  8772   0.398E-02    0.249E-02
RMM:   8    -0.588247982012E+03    0.18619E-05   -0.61965E-05  9912   0.190E-02    0.178E-02
RMM:   9    -0.588247982439E+03   -0.42661E-06   -0.23971E-05  8466   0.135E-02    0.164E-02
RMM:  10    -0.588247981185E+03    0.12540E-05   -0.95149E-06  6714   0.989E-03    0.109E-02
RMM:  11    -0.588247980725E+03    0.46007E-06   -0.44089E-06  6152   0.691E-03
   9 F= -.58824798E+03 E0= -.58825085E+03  d E =-.159824E-02
 trial-energy change:   -0.001598  1 .order   -0.001552   -0.004977    0.001873
 step:   1.7274(harm=  1.7090)  dis= 0.00299  next Energy=  -588.248228 (dE=-0.185E-02)
 bond charge predicted
       N       E                     dE             d eps       ncg     rms          rms(c)
DAV:   1    -0.588248231833E+03   -0.25065E-03   -0.19618E-02  8832   0.271E-01    0.450E-02
RMM:   2    -0.588248246972E+03   -0.15140E-04   -0.41002E-04  9006   0.701E-02    0.425E-02
RMM:   3    -0.588248282020E+03   -0.35048E-04   -0.17104E-04  9766   0.416E-02    0.663E-02
RMM:   4    -0.588248266199E+03    0.15821E-04   -0.84919E-05  9566   0.280E-02    0.531E-02
RMM:   5    -0.588248239614E+03    0.26585E-04   -0.36290E-05  8827   0.195E-02    0.238E-02
RMM:   6    -0.588248239614E+03    0.74942E-09   -0.25779E-05  8444   0.143E-02    0.221E-02
RMM:   7    -0.588248232971E+03    0.66421E-05   -0.94538E-06  6984   0.115E-02    0.724E-03
RMM:   8    -0.588248232773E+03    0.19836E-06   -0.31922E-06  5866   0.593E-03
  10 F= -.58824823E+03 E0= -.58825110E+03  d E =-.185029E-02
 curvature:  -1.21 expect dE=-0.136E-03 dE for cont linesearch -0.189E-08
 trial: gam= 0.08278 g(F)=  0.113E-03 g(S)=  0.000E+00 ort = 0.216E-05 (trialstep = 0.223E+01)
 search vector abs. value=  0.134E-03
 bond charge predicted
       N       E                     dE             d eps       ncg     rms          rms(c)
DAV:   1    -0.588248426610E+03   -0.19364E-03   -0.10735E-02  8792   0.202E-01    0.299E-02
RMM:   2    -0.588248455235E+03   -0.28625E-04   -0.27002E-04  8666   0.617E-02    0.456E-02
RMM:   3    -0.588248446291E+03    0.89438E-05   -0.76680E-05  9585   0.292E-02    0.278E-02
RMM:   4    -0.588248448430E+03   -0.21383E-05   -0.29565E-05  9557   0.125E-02    0.264E-02
RMM:   5    -0.588248447430E+03    0.99918E-06   -0.14958E-05  7599   0.122E-02    0.258E-02
RMM:   6    -0.588248443022E+03    0.44080E-05   -0.15631E-05  7663   0.125E-02    0.169E-02
RMM:   7    -0.588248440780E+03    0.22422E-05   -0.74432E-06  6647   0.105E-02    0.902E-03
RMM:   8    -0.588248439595E+03    0.11850E-05   -0.17241E-06  5502   0.575E-03    0.322E-03
RMM:   9    -0.588248439688E+03   -0.92667E-07   -0.71261E-07  5102   0.299E-03
  11 F= -.58824844E+03 E0= -.58825131E+03  d E =-.206915E-03
 trial-energy change:   -0.000207  1 .order   -0.000205   -0.000252   -0.000158
 step:   5.9742(harm=  5.9742)  dis= 0.01092  next Energy=  -588.248571 (dE=-0.338E-03)
 bond charge predicted
       N       E                     dE             d eps       ncg     rms          rms(c)
DAV:   1    -0.588248545102E+03   -0.10551E-03   -0.30444E-02  8632   0.339E-01    0.500E-02
RMM:   2    -0.588248608886E+03   -0.63784E-04   -0.68674E-04  8666   0.963E-02    0.691E-02
RMM:   3    -0.588248597952E+03    0.10934E-04   -0.20030E-04  9833   0.465E-02    0.495E-02
RMM:   4    -0.588248616682E+03   -0.18730E-04   -0.89582E-05 10285   0.227E-02    0.569E-02
RMM:   5    -0.588248585041E+03    0.31641E-04   -0.41960E-05  8913   0.205E-02    0.306E-02
RMM:   6    -0.588248581664E+03    0.33767E-05   -0.39098E-05  9149   0.161E-02    0.235E-02
RMM:   7    -0.588248575431E+03    0.62331E-05   -0.16333E-05  7512   0.145E-02    0.119E-02
RMM:   8    -0.588248573361E+03    0.20698E-05   -0.42305E-06  6150   0.673E-03    0.340E-03
RMM:   9    -0.588248573853E+03   -0.49146E-06   -0.21296E-06  5674   0.429E-03
  12 F= -.58824857E+03 E0= -.58825144E+03  d E =-.341079E-03
 curvature:  -3.53 expect dE=-0.991E-03 dE for cont linesearch -0.543E-08
 trial: gam= 2.48591 g(F)=  0.281E-03 g(S)=  0.000E+00 ort =-0.454E-06 (trialstep = 0.360E+00)
 search vector abs. value=  0.111E-02
 bond charge predicted
       N       E                     dE             d eps       ncg     rms          rms(c)
DAV:   1    -0.588248666320E+03   -0.92959E-04   -0.22707E-03  9264   0.936E-02    0.126E-02
RMM:   2    -0.588248675831E+03   -0.95111E-05   -0.64397E-05  8416   0.309E-02    0.248E-02
RMM:   3    -0.588248671434E+03    0.43964E-05   -0.15593E-05  7980   0.135E-02    0.984E-03
RMM:   4    -0.588248673876E+03   -0.24421E-05   -0.58637E-06  6462   0.629E-03    0.154E-02
RMM:   5    -0.588248671940E+03    0.19363E-05   -0.29547E-06  5866   0.704E-03    0.863E-03
RMM:   6    -0.588248672109E+03   -0.16882E-06   -0.33036E-06  5975   0.570E-03
  13 F= -.58824867E+03 E0= -.58825154E+03  d E =-.982564E-04
 ZBRENT: can't locate minimum, use default step
 trial-energy change:   -0.000098  1 .order   -0.000097   -0.000101   -0.000094
 step:   1.4416(harm=  5.4177)  dis= 0.00862  next Energy=  -588.249331 (dE=-0.757E-03)
 bond charge predicted
       N       E                     dE             d eps       ncg     rms          rms(c)
DAV:   1    -0.588248886308E+03   -0.21437E-03   -0.20429E-02  8560   0.279E-01    0.372E-02
RMM:   2    -0.588248949376E+03   -0.63069E-04   -0.49616E-04  8819   0.814E-02    0.608E-02
RMM:   3    -0.588248929321E+03    0.20055E-04   -0.12906E-04  9811   0.368E-02    0.312E-02
RMM:   4    -0.588248955956E+03   -0.26635E-04   -0.51273E-05  9770   0.176E-02    0.499E-02
RMM:   5    -0.588248928255E+03    0.27701E-04   -0.25021E-05  8185   0.162E-02    0.232E-02
RMM:   6    -0.588248932362E+03   -0.41070E-05   -0.34182E-05  8336   0.185E-02    0.274E-02
RMM:   7    -0.588248923085E+03    0.92772E-05   -0.83978E-06  6716   0.117E-02    0.439E-03
RMM:   8    -0.588248923178E+03   -0.92994E-07   -0.25859E-06  5750   0.415E-03
  14 F= -.58824892E+03 E0= -.58825179E+03  d E =-.349325E-03
 curvature:  -4.09 expect dE=-0.677E-03 dE for cont linesearch -0.154E-03
 ZBRENT: increasing intervall
 opt :   3.6041  next Energy=  -588.249240 (dE=-0.666E-03)
 bond charge predicted
       N       E                     dE             d eps       ncg     rms          rms(c)
DAV:   1    -0.588249108305E+03   -0.18522E-03   -0.81967E-02  8512   0.556E-01    0.740E-02
RMM:   2    -0.588249354466E+03   -0.24616E-03   -0.18833E-03  8717   0.154E-01    0.125E-01
RMM:   3    -0.588249259577E+03    0.94889E-04   -0.47752E-04  9886   0.718E-02    0.587E-02
RMM:   4    -0.588249402726E+03   -0.14315E-03   -0.24227E-04 10709   0.339E-02    0.108E-01
RMM:   5    -0.588249261686E+03    0.14104E-03   -0.12126E-04  9112   0.345E-02    0.471E-02
RMM:   6    -0.588249255278E+03    0.64081E-05   -0.11302E-04  9103   0.314E-02    0.377E-02
RMM:   7    -0.588249243362E+03    0.11916E-04   -0.42758E-05  8440   0.226E-02    0.193E-02
RMM:   8    -0.588249237934E+03    0.54276E-05   -0.11540E-05  6895   0.104E-02    0.863E-03
RMM:   9    -0.588249237635E+03    0.29925E-06   -0.49593E-06  6189   0.564E-03
  15 F= -.58824924E+03 E0= -.58825211E+03  d E =-.663782E-03
 curvature:  -8.44 expect dE=-0.111E-02 dE for cont linesearch -0.546E-04
 ZBRENT: increasing intervall
 opt :   7.9290  next Energy=  -588.249088 (dE=-0.515E-03)
 bond charge predicted
       N       E                     dE             d eps       ncg     rms          rms(c)
DAV:   1    -0.588248564638E+03    0.67330E-03   -0.32773E-01  8480   0.111E+00    0.149E-01
RMM:   2    -0.588249616731E+03   -0.10521E-02   -0.77484E-03  8803   0.309E-01    0.261E-01
RMM:   3    -0.588249173665E+03    0.44307E-03   -0.19288E-03  9867   0.144E-01    0.118E-01
RMM:   4    -0.588250014241E+03   -0.84058E-03   -0.11672E-03 10598   0.776E-02    0.262E-01
RMM:   5    -0.588249136602E+03    0.87764E-03   -0.58192E-04  9059   0.774E-02    0.772E-02
RMM:   6    -0.588249161291E+03   -0.24689E-04   -0.47868E-04  9291   0.627E-02    0.822E-02
RMM:   7    -0.588249098356E+03    0.62935E-04   -0.19115E-04  8625   0.470E-02    0.365E-02
RMM:   8    -0.588249078359E+03    0.19998E-04   -0.56381E-05  9026   0.188E-02    0.158E-02
RMM:   9    -0.588249077266E+03    0.10921E-05   -0.20007E-05  7514   0.942E-03    0.100E-02
RMM:  10    -0.588249077393E+03   -0.12622E-06   -0.66580E-06  6554   0.750E-03
  16 F= -.58824908E+03 E0= -.58825196E+03  d E =-.503540E-03
 curvature:  23.08 expect dE= 0.135E-01 dE for cont linesearch  0.610E-03
 ZBRENT: bracketing found
 ZBRENT: interpolating
 opt :   5.0353  next Energy=  -588.249298 (dE=-0.724E-03)
 bond charge predicted
       N       E                     dE             d eps       ncg     rms          rms(c)
DAV:   1    -0.588249075447E+03    0.18199E-05   -0.14660E-01  8464   0.745E-01    0.993E-02
RMM:   2    -0.588249512432E+03   -0.43699E-03   -0.34073E-03  8741   0.209E-01    0.166E-01
RMM:   3    -0.588249347996E+03    0.16444E-03   -0.85848E-04  9915   0.959E-02    0.795E-02
RMM:   4    -0.588249646372E+03   -0.29838E-03   -0.45890E-04 10670   0.474E-02    0.157E-01
RMM:   5    -0.588249335651E+03    0.31072E-03   -0.22448E-04  9107   0.477E-02    0.554E-02
RMM:   6    -0.588249347651E+03   -0.12000E-04   -0.22507E-04  9224   0.429E-02    0.570E-02
RMM:   7    -0.588249315838E+03    0.31813E-04   -0.80987E-05  8538   0.315E-02    0.260E-02
RMM:   8    -0.588249305764E+03    0.10075E-04   -0.22000E-05  7937   0.140E-02    0.971E-03
RMM:   9    -0.588249305693E+03    0.70093E-07   -0.95795E-06  6846   0.667E-03
  17 F= -.58824931E+03 E0= -.58825218E+03  d E =-.731841E-03
 curvature:  -2.29 expect dE=-0.462E-03 dE for cont linesearch -0.216E-06
 trial: gam= 0.63630 g(F)=  0.202E-03 g(S)=  0.000E+00 ort = 0.102E-04 (trialstep = 0.130E+01)
 search vector abs. value=  0.663E-03
 bond charge predicted
       N       E                     dE             d eps       ncg     rms          rms(c)
DAV:   1    -0.588249489825E+03   -0.18406E-03   -0.17801E-02  8608   0.257E-01    0.374E-02
RMM:   2    -0.588249530872E+03   -0.41046E-04   -0.41340E-04  8887   0.724E-02    0.504E-02
RMM:   3    -0.588249526783E+03    0.40892E-05   -0.12392E-04  9813   0.352E-02    0.373E-02
RMM:   4    -0.588249547827E+03   -0.21045E-04   -0.53279E-05  9670   0.189E-02    0.503E-02
RMM:   5    -0.588249518699E+03    0.29129E-04   -0.24435E-05  8337   0.163E-02    0.202E-02
RMM:   6    -0.588249518848E+03   -0.14878E-06   -0.23720E-05  8149   0.150E-02    0.190E-02
RMM:   7    -0.588249514626E+03    0.42214E-05   -0.71491E-06  6419   0.102E-02    0.767E-03
RMM:   8    -0.588249514045E+03    0.58123E-06   -0.21488E-06  5607   0.527E-03
  18 F= -.58824951E+03 E0= -.58825239E+03  d E =-.208351E-03
 trial-energy change:   -0.000208  1 .order   -0.000209   -0.000270   -0.000148
 step:   2.8607(harm=  2.8607)  dis= 0.01356  next Energy=  -588.249604 (dE=-0.298E-03)
 bond charge predicted
       N       E                     dE             d eps       ncg     rms          rms(c)
DAV:   1    -0.588249574365E+03   -0.59738E-04   -0.26091E-02  8496   0.310E-01    0.452E-02
RMM:   2    -0.588249642700E+03   -0.68336E-04   -0.59110E-04  8844   0.839E-02    0.656E-02
RMM:   3    -0.588249633363E+03    0.93370E-05   -0.16512E-04 10021   0.395E-02    0.481E-02
RMM:   4    -0.588249687996E+03   -0.54633E-04   -0.12358E-04  9622   0.290E-02    0.803E-02
RMM:   5    -0.588249613376E+03    0.74619E-04   -0.61027E-05  8879   0.259E-02    0.186E-02
RMM:   6    -0.588249615353E+03   -0.19766E-05   -0.39848E-05  9118   0.150E-02    0.212E-02
RMM:   7    -0.588249611386E+03    0.39672E-05   -0.15511E-05  7174   0.129E-02    0.117E-02
RMM:   8    -0.588249609433E+03    0.19525E-05   -0.36512E-06  5965   0.644E-03    0.382E-03
RMM:   9    -0.588249609469E+03   -0.35387E-07   -0.16408E-06  5480   0.387E-03
  19 F= -.58824961E+03 E0= -.58825249E+03  d E =-.303775E-03
 curvature:  -4.55 expect dE=-0.664E-03 dE for cont linesearch -0.998E-07
 trial: gam= 0.73764 g(F)=  0.146E-03 g(S)=  0.000E+00 ort = 0.381E-05 (trialstep = 0.161E+01)
 search vector abs. value=  0.512E-03
 bond charge predicted
       N       E                     dE             d eps       ncg     rms          rms(c)
DAV:   1    -0.588249793095E+03   -0.18366E-03   -0.21096E-02  8560   0.282E-01    0.432E-02
RMM:   2    -0.588249842619E+03   -0.49524E-04   -0.44808E-04  8950   0.743E-02    0.520E-02
RMM:   3    -0.588249858967E+03   -0.16348E-04   -0.14748E-04  9882   0.377E-02    0.537E-02
RMM:   4    -0.588249894204E+03   -0.35237E-04   -0.10041E-04  9911   0.253E-02    0.726E-02
RMM:   5    -0.588249830555E+03    0.63649E-04   -0.53534E-05  8592   0.248E-02    0.197E-02
RMM:   6    -0.588249830707E+03   -0.15245E-06   -0.33494E-05  8960   0.136E-02    0.185E-02
RMM:   7    -0.588249828587E+03    0.21198E-05   -0.14070E-05  7082   0.121E-02    0.120E-02
RMM:   8    -0.588249826499E+03    0.20888E-05   -0.29032E-06  5875   0.629E-03    0.347E-03
RMM:   9    -0.588249826530E+03   -0.30941E-07   -0.11717E-06  5418   0.322E-03
  20 F= -.58824983E+03 E0= -.58825271E+03  d E =-.217061E-03
 ZBRENT: can't locate minimum, use default step
 trial-energy change:   -0.000217  1 .order   -0.000215   -0.000239   -0.000191
 step:   6.4338(harm=  7.9096)  dis= 0.02836  next Energy=  -588.250198 (dE=-0.588E-03)
 bond charge predicted
       N       E                     dE             d eps       ncg     rms          rms(c)
DAV:   1    -0.588249912773E+03   -0.86274E-04   -0.18990E-01  8480   0.846E-01    0.129E-01
RMM:   2    -0.588250323160E+03   -0.41039E-03   -0.37891E-03  9108   0.206E-01    0.150E-01
RMM:   3    -0.588250498951E+03   -0.17579E-03   -0.12504E-03 10006   0.110E-01    0.165E-01
RMM:   4    -0.588250837131E+03   -0.33818E-03   -0.10009E-03  9904   0.801E-02    0.227E-01
RMM:   5    -0.588250211912E+03    0.62522E-03   -0.50083E-04  8790   0.762E-02    0.539E-02
RMM:   6    -0.588250208059E+03    0.38533E-05   -0.28607E-04 10049   0.382E-02    0.478E-02
RMM:   7    -0.588250195325E+03    0.12734E-04   -0.10421E-04  8678   0.316E-02    0.309E-02
RMM:   8    -0.588250181691E+03    0.13635E-04   -0.24150E-05  8045   0.145E-02    0.105E-02
RMM:   9    -0.588250181557E+03    0.13366E-06   -0.12567E-05  7013   0.751E-03    0.756E-03
RMM:  10    -0.588250181479E+03    0.77882E-07   -0.33402E-06  6011   0.556E-03
  21 F= -.58825018E+03 E0= -.58825307E+03  d E =-.572011E-03
 curvature: -12.87 expect dE=-0.188E-02 dE for cont linesearch -0.142E-04
 trial: gam= 0.92642 g(F)=  0.146E-03 g(S)=  0.000E+00 ort = 0.238E-04 (trialstep = 0.209E+01)
 search vector abs. value=  0.630E-03
 bond charge predicted
       N       E                     dE             d eps       ncg     rms          rms(c)
DAV:   1    -0.588250338416E+03   -0.15686E-03   -0.44644E-02  8728   0.412E-01    0.655E-02
RMM:   2    -0.588250406755E+03   -0.68339E-04   -0.93671E-04  9166   0.106E-01    0.671E-02
RMM:   3    -0.588250474582E+03   -0.67826E-04   -0.37182E-04  9912   0.601E-02    0.911E-02
RMM:   4    -0.588250526321E+03   -0.51739E-04   -0.20655E-04 10124   0.376E-02    0.103E-01
RMM:   5    -0.588250393049E+03    0.13327E-03   -0.10223E-04  8988   0.340E-02    0.320E-02
RMM:   6    -0.588250387505E+03    0.55444E-05   -0.63415E-05  9863   0.201E-02    0.259E-02
RMM:   7    -0.588250382657E+03    0.48474E-05   -0.26734E-05  8042   0.162E-02    0.145E-02
RMM:   8    -0.588250379431E+03    0.32260E-05   -0.64062E-06  6527   0.716E-03    0.497E-03
RMM:   9    -0.588250379864E+03   -0.43224E-06   -0.36828E-06  5973   0.590E-03
  22 F= -.58825038E+03 E0= -.58825327E+03  d E =-.198385E-03
 trial-energy change:   -0.000198  1 .order   -0.000193   -0.000352   -0.000034
 step:   2.2935(harm=  2.3164)  dis= 0.00999  next Energy=  -588.250381 (dE=-0.200E-03)
 reached required accuracy - stopping structural energy minimisation
 augmentation electrons   35.689829572958487     
 soft         electrons   243.40563802092541     
 augmentation electrons   35.689829572958487     
 soft         electrons   243.40563802092541     
 augmentation electrons   35.689829572958487     
 soft         electrons   243.40563802092541     
 augmentation electrons   35.689829572958487     
 soft         electrons   243.40563802092541     
 augmentation electrons   35.689829572958487     
 soft         electrons   243.40563802092541     
 augmentation electrons   35.689829572958487     
 soft         electrons   243.40563802092541     
 augmentation electrons   35.689829572958487     
 soft         electrons   243.40563802092541     
 augmentation electrons   35.689829572958487     
 soft         electrons   243.40563802092541     
 augmentation electrons   35.689829572958487     
 soft         electrons   243.40563802092541     
 augmentation electrons   35.689829572958487     
 soft         electrons   243.40563802092541     
 augmentation electrons   35.689829572958487     
 soft         electrons   243.40563802092541     
 augmentation electrons   35.689829572958487     
 soft         electrons   243.40563802092541     
 augmentation electrons   35.689829572958487     
 soft         electrons   243.40563802092541     
 augmentation electrons   35.689829572958487     
 soft         electrons   243.40563802092541     
 augmentation electrons   35.689829572958487     
 soft         electrons   243.40563802092541     
 augmentation electrons   35.689829572958487     
 soft         electrons   243.40563802092541     
 augmentation electrons   35.689829572958487     
 soft         electrons   243.40563802092541     
 augmentation electrons   35.689829572958487     
 soft         electrons   243.40563802092541     
 augmentation electrons   35.689829572958487     
 soft         electrons   243.40563802092541     
 augmentation electrons   35.689829572958487     
 soft         electrons   243.40563802092541     
 augmentation electrons   35.689829572958487     
 soft         electrons   243.40563802092541     
 augmentation electrons   35.689829572958487     
 soft         electrons   243.40563802092541     
 augmentation electrons   35.689829572958487     
 soft         electrons   243.40563802092541     
 augmentation electrons   35.689829572958487     
 soft         electrons   243.40563802092541     
 augmentation electrons   35.689829572958487     
 soft         electrons   243.40563802092541     
 augmentation electrons   35.689829572958487     
 soft         electrons   243.40563802092541     
 augmentation electrons   35.689829572958487     
 soft         electrons   243.40563802092541     
 augmentation electrons   35.689829572958487     
 soft         electrons   243.40563802092541     
 augmentation electrons   35.689829572958487     
 soft         electrons   243.40563802092541     
 augmentation electrons   35.689829572958487     
 soft         electrons   243.40563802092541     
 augmentation electrons   35.689829572958487     
 soft         electrons   243.40563802092541     
 augmentation electrons   35.689829572958487     
 soft         electrons   243.40563802092541     
 augmentation electrons   35.689829572958487     
 soft         electrons   243.40563802092541     
 augmentation electrons   35.689829572958487     
 soft         electrons   243.40563802092541     
 augmentation electrons   35.689829572958487     
 soft         electrons   243.40563802092541     
 augmentation electrons   35.689829572958487     
 soft         electrons   243.40563802092541     
 augmentation electrons   35.689829572958487     
 soft         electrons   243.40563802092541     
 augmentation electrons   35.689829572958487     
 soft         electrons   243.40563802092541     
 augmentation electrons   35.689829572958487     
 soft         electrons   243.40563802092541     
 augmentation electrons   35.689829572958487     
 soft         electrons   243.40563802092541     
 augmentation electrons   35.689829572958487     
 soft         electrons   243.40563802092541     
 augmentation electrons   35.689829572958487     
 soft         electrons   243.40563802092541     
 augmentation electrons   35.689829572958487     
 soft         electrons   243.40563802092541     
 augmentation electrons   35.689829572958487     
 soft         electrons   243.40563802092541     
 augmentation electrons   35.689829572958487     
 soft         electrons   243.40563802092541     
 augmentation electrons   35.689829572958487     
 soft         electrons   243.40563802092541     
 augmentation electrons   35.689829572958487     
 soft         electrons   243.40563802092541     
 augmentation electrons   35.689829572958487     
 soft         electrons   243.40563802092541     
 augmentation electrons   35.689829572958487     
 soft         electrons   243.40563802092541     
 augmentation electrons   35.689829572958487     
 soft         electrons   243.40563802092541     
 augmentation electrons   35.689829572958487     
 soft         electrons   243.40563802092541     
 augmentation electrons   35.689829572958487     
 soft         electrons   243.40563802092541     
 augmentation electrons   35.689829572958487     
 soft         electrons   243.40563802092541     
 augmentation electrons   35.689829572958487     
 soft         electrons   243.40563802092541     
 augmentation electrons   35.689829572958487     
 soft         electrons   243.40563802092541     
 augmentation electrons   35.689829572958487     
 soft         electrons   243.40563802092541     
 augmentation electrons   35.689829572958487     
 soft         electrons   243.40563802092541     
 augmentation electrons   35.689829572958487     
 soft         electrons   243.40563802092541     
 augmentation electrons   35.689829572958487     
 soft         electrons   243.40563802092541     
 augmentation electrons   35.689829572958487     
 soft         electrons   243.40563802092541     
 augmentation electrons   35.689829572958487     
 soft         electrons   243.40563802092541     
 augmentation electrons   35.689829572958487     
 soft         electrons   243.40563802092541     
 augmentation electrons   35.689829572958487     
 soft         electrons   243.40563802092541     
 augmentation electrons   35.689829572958487     
 soft         electrons   243.40563802092541     
 augmentation electrons   35.689829572958487     
 soft         electrons   243.40563802092541     
 augmentation electrons   35.689829572958487     
 soft         electrons   243.40563802092541     
 augmentation electrons   35.689829572958487     
 soft         electrons   243.40563802092541     
 augmentation electrons   35.689829572958487     
 soft         electrons   243.40563802092541     
 augmentation electrons   35.689829572958487     
 soft         electrons   243.40563802092541     
 augmentation electrons   35.689829572958487     
 soft         electrons   243.40563802092541     
 augmentation electrons   35.689829572958487     
 soft         electrons   243.40563802092541     
 augmentation electrons   35.689829572958487     
 soft         electrons   243.40563802092541     
 total        electrons   279.09546759388388     
 total        electrons   279.09546759388388     
 total        electrons   279.09546759388388     
 total        electrons   279.09546759388388     
 total        electrons   279.09546759388388     
 total        electrons   279.09546759388388     
 total        electrons   279.09546759388388     
 total        electrons   279.09546759388388     
 total        electrons   279.09546759388388     
 total        electrons   279.09546759388388     
 total        electrons   279.09546759388388     
 total        electrons   279.09546759388388     
 total        electrons   279.09546759388388     
 total        electrons   279.09546759388388     
 total        electrons   279.09546759388388     
 total        electrons   279.09546759388388     
 total        electrons   279.09546759388388     
 total        electrons   279.09546759388388     
 total        electrons   279.09546759388388     
 total        electrons   279.09546759388388     
 total        electrons   279.09546759388388     
 total        electrons   279.09546759388388     
 total        electrons   279.09546759388388     
 total        electrons   279.09546759388388     
 total        electrons   279.09546759388388     
 total        electrons   279.09546759388388     
 total        electrons   279.09546759388388     
 total        electrons   279.09546759388388     
 total        electrons   279.09546759388388     
 total        electrons   279.09546759388388     
 total        electrons   279.09546759388388     
 total        electrons   279.09546759388388     
 total        electrons   279.09546759388388     
 total        electrons   279.09546759388388     
 total        electrons   279.09546759388388     
 total        electrons   279.09546759388388     
 total        electrons   279.09546759388388     
 total        electrons   279.09546759388388     
 total        electrons   279.09546759388388     
 total        electrons   279.09546759388388     
 total        electrons   279.09546759388388     
 total        electrons   279.09546759388388     
 total        electrons   279.09546759388388     
 total        electrons   279.09546759388388     
 total        electrons   279.09546759388388     
 total        electrons   279.09546759388388     
 total        electrons   279.09546759388388     
 total        electrons   279.09546759388388     
 total        electrons   279.09546759388388     
 total        electrons   279.09546759388388     
 total        electrons   279.09546759388388     
 total        electrons   279.09546759388388     
 total        electrons   279.09546759388388     
 total        electrons   279.09546759388388     
 total        electrons   279.09546759388388     
 total        electrons   279.09546759388388     
 total        electrons   279.09546759388388     
 total        electrons   279.09546759388388     
 total        electrons   279.09546759388388     
 total        electrons   279.09546759388388     
 total        electrons   279.09546759388388     
 total        electrons   279.09546759388388     
 total        electrons   279.09546759388388     
 total        electrons   279.09546759388388     
 total        electrons   279.09546759388388     
 total        electrons   279.09546759388388     
 total        electrons   279.09546759388388     
 total        electrons   279.09546759388388     
 total        electrons   279.09546759388388     
 total        electrons   279.09546759388388     
 total        electrons   279.09546759388388     
 total        electrons   279.09546759388388     
Note: The following floating-point exceptions are signalling: IEEE_OVERFLOW_FLAG
Note: The following floating-point exceptions are signalling: IEEE_OVERFLOW_FLAG
Note: The following floating-point exceptions are signalling: IEEE_OVERFLOW_FLAG
Note: The following floating-point exceptions are signalling: IEEE_OVERFLOW_FLAG
Note: The following floating-point exceptions are signalling: IEEE_OVERFLOW_FLAG
Note: The following floating-point exceptions are signalling: IEEE_OVERFLOW_FLAG
Note: The following floating-point exceptions are signalling: IEEE_OVERFLOW_FLAG
Note: The following floating-point exceptions are signalling: IEEE_OVERFLOW_FLAG
Note: The following floating-point exceptions are signalling: IEEE_OVERFLOW_FLAG
Note: The following floating-point exceptions are signalling: IEEE_OVERFLOW_FLAG
Note: The following floating-point exceptions are signalling: IEEE_OVERFLOW_FLAG
Note: The following floating-point exceptions are signalling: IEEE_OVERFLOW_FLAG
Note: The following floating-point exceptions are signalling: IEEE_OVERFLOW_FLAG
Note: The following floating-point exceptions are signalling: IEEE_OVERFLOW_FLAG
Note: The following floating-point exceptions are signalling: IEEE_OVERFLOW_FLAG
Note: The following floating-point exceptions are signalling: IEEE_OVERFLOW_FLAG
Note: The following floating-point exceptions are signalling: IEEE_OVERFLOW_FLAG
Note: The following floating-point exceptions are signalling: IEEE_OVERFLOW_FLAG
Note: The following floating-point exceptions are signalling: IEEE_OVERFLOW_FLAG
Note: The following floating-point exceptions are signalling: IEEE_OVERFLOW_FLAG
Note: The following floating-point exceptions are signalling: IEEE_OVERFLOW_FLAG
Note: The following floating-point exceptions are signalling: IEEE_OVERFLOW_FLAG
Note: The following floating-point exceptions are signalling: IEEE_OVERFLOW_FLAG
Note: The following floating-point exceptions are signalling: IEEE_OVERFLOW_FLAG
Note: The following floating-point exceptions are signalling: IEEE_OVERFLOW_FLAG
Note: The following floating-point exceptions are signalling: IEEE_OVERFLOW_FLAG
Note: The following floating-point exceptions are signalling: IEEE_OVERFLOW_FLAG
Note: The following floating-point exceptions are signalling: IEEE_OVERFLOW_FLAG
Note: The following floating-point exceptions are signalling: IEEE_OVERFLOW_FLAG
Note: The following floating-point exceptions are signalling: IEEE_OVERFLOW_FLAG
Note: The following floating-point exceptions are signalling: IEEE_OVERFLOW_FLAG
Note: The following floating-point exceptions are signalling: IEEE_OVERFLOW_FLAG
Note: The following floating-point exceptions are signalling: IEEE_OVERFLOW_FLAG
Note: The following floating-point exceptions are signalling: IEEE_OVERFLOW_FLAG
Note: The following floating-point exceptions are signalling: IEEE_OVERFLOW_FLAG
Note: The following floating-point exceptions are signalling: IEEE_OVERFLOW_FLAG
Note: The following floating-point exceptions are signalling: IEEE_OVERFLOW_FLAG
Note: The following floating-point exceptions are signalling: IEEE_OVERFLOW_FLAG
Note: The following floating-point exceptions are signalling: IEEE_OVERFLOW_FLAG
Note: The following floating-point exceptions are signalling: IEEE_OVERFLOW_FLAG
Note: The following floating-point exceptions are signalling: IEEE_OVERFLOW_FLAG
Note: The following floating-point exceptions are signalling: IEEE_OVERFLOW_FLAG
Note: The following floating-point exceptions are signalling: IEEE_OVERFLOW_FLAG
Note: The following floating-point exceptions are signalling: IEEE_OVERFLOW_FLAG
Note: The following floating-point exceptions are signalling: IEEE_OVERFLOW_FLAG
Note: The following floating-point exceptions are signalling: IEEE_OVERFLOW_FLAG
Note: The following floating-point exceptions are signalling: IEEE_OVERFLOW_FLAG
Note: The following floating-point exceptions are signalling: IEEE_OVERFLOW_FLAG
Note: The following floating-point exceptions are signalling: IEEE_OVERFLOW_FLAG
Note: The following floating-point exceptions are signalling: IEEE_OVERFLOW_FLAG
Note: The following floating-point exceptions are signalling: IEEE_OVERFLOW_FLAG
Note: The following floating-point exceptions are signalling: IEEE_OVERFLOW_FLAG
Note: The following floating-point exceptions are signalling: IEEE_OVERFLOW_FLAG
Note: The following floating-point exceptions are signalling: IEEE_OVERFLOW_FLAG
Note: The following floating-point exceptions are signalling: IEEE_OVERFLOW_FLAG
Note: The following floating-point exceptions are signalling: IEEE_OVERFLOW_FLAG
Note: The following floating-point exceptions are signalling: IEEE_OVERFLOW_FLAG
Note: The following floating-point exceptions are signalling: IEEE_OVERFLOW_FLAG
Note: The following floating-point exceptions are signalling: IEEE_OVERFLOW_FLAG
Note: The following floating-point exceptions are signalling: IEEE_OVERFLOW_FLAG
Note: The following floating-point exceptions are signalling: IEEE_OVERFLOW_FLAG
Note: The following floating-point exceptions are signalling: IEEE_OVERFLOW_FLAG
Note: The following floating-point exceptions are signalling: IEEE_OVERFLOW_FLAG
Note: The following floating-point exceptions are signalling: IEEE_OVERFLOW_FLAG
Note: The following floating-point exceptions are signalling: IEEE_OVERFLOW_FLAG
Note: The following floating-point exceptions are signalling: IEEE_OVERFLOW_FLAG
Note: The following floating-point exceptions are signalling: IEEE_OVERFLOW_FLAG
Note: The following floating-point exceptions are signalling: IEEE_OVERFLOW_FLAG
Note: The following floating-point exceptions are signalling: IEEE_OVERFLOW_FLAG
Note: The following floating-point exceptions are signalling: IEEE_OVERFLOW_FLAG
Note: The following floating-point exceptions are signalling: IEEE_OVERFLOW_FLAG
Note: The following floating-point exceptions are signalling: IEEE_OVERFLOW_FLAG
