   50   50    1    1
  0.1651726E+02  0.6071501E-09  0.6071501E-09  0.2586333E-08  0.5000000E-15
   1.0000000000000000E-004
  CAR 
 Name                                    
    194     25    126

  0.3742002E-15  0.3742002E-15  0.1262379E-14  0.1234568E-01
    1      -12.846149   1.000000
    2      -12.151594   1.000000
    3      -11.389194   1.000000
    4       -9.743534   1.000000
    5       -9.699881   1.000000
    6       -9.647938   1.000000
    7       -9.539723   1.000000
    8       -9.249205   1.000000
    9       -9.151378   1.000000
   10       -9.112844   1.000000
   11       -8.944726   1.000000
   12       -8.904406   1.000000
   13       -8.895337   1.000000
   14       -8.826284   1.000000
   15       -8.823331   1.000000
   16       -8.803166   1.000000
   17       -8.249547   1.000000
   18       -8.186997   1.000000
   19       -8.156695   1.000000
   20       -7.536517   1.000000
   21       -7.403120   1.000000
   22       -7.331750   1.000000
   23       -6.854770   1.000000
   24       -6.833641   1.000000
   25       -6.759737   1.000000
   26       -6.753789   1.000000
   27       -5.773593   1.000000
   28       -5.675405   1.000000
   29       -5.564792   1.000000
   30       -5.530418   1.000000
   31       -4.695392   1.000000
   32       -4.665039   1.000000
   33       -4.635628   1.000000
   34       -4.513626   1.000000
   35       -4.005854   1.000000
   36       -4.004006   1.000000
   37       -3.991493   1.000000
   38       -3.948378   1.000000
   39       -3.844748   1.000000
   40       -3.801766   1.000000
   41       -3.727556   1.000000
   42       -3.616379   1.000000
   43       -3.421275   1.000000
   44       -3.303770   1.000000
   45       -3.242714   1.000000
   46       -3.238070   1.000000
   47       -3.221682   1.000000
   48       -3.132980   1.000000
   49       -3.118013   1.000000
   50       -3.069168   1.000000
   51       -3.049725   1.000000
   52       -2.793991   1.000000
   53       -2.771326   1.000000
   54       -2.754312   1.000000
   55       -2.671797   1.000000
   56       -2.649853   1.000000
   57       -2.616194   1.000000
   58       -2.583220   1.000000
   59       -2.576262   1.000000
   60       -2.480430   1.000000
   61       -2.364335   1.000000
   62       -2.339870   1.000000
   63       -2.287419   1.000000
   64       -2.273122   1.000000
   65       -2.244395   1.000000
   66       -1.972031   1.000000
   67       -1.965839   1.000000
   68       -1.750978   1.000000
   69       -1.352495   1.000000
   70       -1.316671   1.000000
   71       -1.195430   1.000000
   72       -1.076944   1.000000
   73       -1.059004   1.000000
   74       -0.703332   1.000000
   75       -0.373510   1.000000
   76       -0.341304   1.000000
   77       -0.093878   1.000000
   78       -0.075462   1.000000
   79        0.055350   1.000000
   80        0.271530   1.000000
   81        0.304387   1.000000
   82        0.453782   1.000000
   83        0.516039   1.000000
   84        0.671812   1.000000
   85        0.677933   1.000000
   86        0.714369   1.000000
   87        0.951532   1.000000
   88        1.034789   1.000000
   89        1.154510   1.000011
   90        1.277575   1.000367
   91        1.295228   1.000567
   92        1.527548   1.027995
   93        1.539280   1.030481
   94        1.657331   1.000321
   95        1.705386   0.921388
   96        1.706373   0.919177
   97        1.878310   0.286832
   98        2.144613  -0.023387
   99        2.199067  -0.012049
  100        2.279488  -0.003071
  101        2.433569  -0.000075
  102        2.435320  -0.000072
  103        2.483902  -0.000017
  104        2.619346  -0.000000
  105        2.682376  -0.000000
  106        2.716183  -0.000000
  107        2.732020  -0.000000
  108        2.737849  -0.000000
  109        2.769747  -0.000000
  110        2.789682  -0.000000
  111        2.923280  -0.000000
  112        2.949548  -0.000000
  113        3.013512  -0.000000
  114        3.046225  -0.000000
  115        3.069380  -0.000000
  116        3.121744  -0.000000
  117        3.203380  -0.000000
  118        3.365008  -0.000000
  119        3.409371  -0.000000
  120        3.423051  -0.000000
  121        3.780783  -0.000000
  122        3.888129  -0.000000
  123        4.261517  -0.000000
  124        4.492142  -0.000000
  125        4.561163  -0.000000
  126        4.601586  -0.000000

  0.1111111E+00  0.3762813E-15  0.1262379E-14  0.4938272E-01
    1      -12.788170   1.000000
    2      -12.100837   1.000000
    3      -11.353594   1.000000
    4       -9.819607   1.000000
    5       -9.674730   1.000000
    6       -9.646123   1.000000
    7       -9.637328   1.000000
    8       -9.575353   1.000000
    9       -9.429295   1.000000
   10       -9.305821   1.000000
   11       -9.220609   1.000000
   12       -9.171866   1.000000
   13       -9.124824   1.000000
   14       -8.481740   1.000000
   15       -8.466707   1.000000
   16       -8.164836   1.000000
   17       -8.079763   1.000000
   18       -8.051998   1.000000
   19       -7.887494   1.000000
   20       -7.448399   1.000000
   21       -7.380038   1.000000
   22       -7.288014   1.000000
   23       -6.878538   1.000000
   24       -6.847887   1.000000
   25       -6.765239   1.000000
   26       -6.744455   1.000000
   27       -5.719231   1.000000
   28       -5.549701   1.000000
   29       -5.506659   1.000000
   30       -5.327744   1.000000
   31       -4.721372   1.000000
   32       -4.662084   1.000000
   33       -4.606971   1.000000
   34       -4.486398   1.000000
   35       -4.116154   1.000000
   36       -4.088086   1.000000
   37       -4.015968   1.000000
   38       -3.962399   1.000000
   39       -3.835612   1.000000
   40       -3.801100   1.000000
   41       -3.757362   1.000000
   42       -3.709854   1.000000
   43       -3.674001   1.000000
   44       -3.576431   1.000000
   45       -3.397486   1.000000
   46       -3.257009   1.000000
   47       -3.184658   1.000000
   48       -3.144606   1.000000
   49       -3.055993   1.000000
   50       -2.999134   1.000000
   51       -2.935037   1.000000
   52       -2.823978   1.000000
   53       -2.792418   1.000000
   54       -2.768819   1.000000
   55       -2.703260   1.000000
   56       -2.617844   1.000000
   57       -2.596106   1.000000
   58       -2.552193   1.000000
   59       -2.527157   1.000000
   60       -2.423158   1.000000
   61       -2.395022   1.000000
   62       -2.361820   1.000000
   63       -2.329923   1.000000
   64       -2.193031   1.000000
   65       -2.109333   1.000000
   66       -2.024438   1.000000
   67       -1.983559   1.000000
   68       -1.710055   1.000000
   69       -1.664398   1.000000
   70       -1.542317   1.000000
   71       -1.210309   1.000000
   72       -1.133108   1.000000
   73       -1.034350   1.000000
   74       -0.811681   1.000000
   75       -0.506430   1.000000
   76       -0.404887   1.000000
   77       -0.151370   1.000000
   78       -0.104642   1.000000
   79        0.041125   1.000000
   80        0.074293   1.000000
   81        0.271411   1.000000
   82        0.424017   1.000000
   83        0.553199   1.000000
   84        0.627389   1.000000
   85        0.649167   1.000000
   86        0.673406   1.000000
   87        0.944675   1.000000
   88        1.017955   1.000000
   89        1.194640   1.000038
   90        1.333015   1.001352
   91        1.379837   1.003538
   92        1.505679   1.022992
   93        1.538823   1.030390
   94        1.626744   1.024737
   95        1.695686   0.941816
   96        1.729142   0.861348
   97        1.882435   0.271420
   98        2.129533  -0.026857
   99        2.234559  -0.006945
  100        2.359111  -0.000535
  101        2.401280  -0.000183
  102        2.407136  -0.000157
  103        2.452042  -0.000044
  104        2.547149  -0.000002
  105        2.597606  -0.000000
  106        2.665355  -0.000000
  107        2.695357  -0.000000
  108        2.728766  -0.000000
  109        2.777309  -0.000000
  110        2.817802  -0.000000
  111        2.835785  -0.000000
  112        2.932653  -0.000000
  113        2.966157  -0.000000
  114        3.001206  -0.000000
  115        3.056903  -0.000000
  116        3.101557  -0.000000
  117        3.151830  -0.000000
  118        3.187584  -0.000000
  119        3.250528  -0.000000
  120        3.396301  -0.000000
  121        3.663272  -0.000000
  122        3.798780  -0.000000
  123        3.941841  -0.000000
  124        4.364037  -0.000000
  125        4.533512  -0.000000
  126        4.575613  -0.000000

  0.2222222E+00  0.3499357E-15  0.1262379E-14  0.4938272E-01
    1      -12.616070   1.000000
    2      -11.950800   1.000000
    3      -11.249015   1.000000
    4      -10.318022   1.000000
    5      -10.060531   1.000000
    6       -9.908389   1.000000
    7       -9.674752   1.000000
    8       -9.667780   1.000000
    9       -9.541357   1.000000
   10       -9.476913   1.000000
   11       -9.431803   1.000000
   12       -9.306184   1.000000
   13       -9.285620   1.000000
   14       -8.052629   1.000000
   15       -8.019470   1.000000
   16       -7.931501   1.000000
   17       -7.790499   1.000000
   18       -7.742711   1.000000
   19       -7.321539   1.000000
   20       -7.317526   1.000000
   21       -7.269119   1.000000
   22       -6.977559   1.000000
   23       -6.901823   1.000000
   24       -6.792885   1.000000
   25       -6.628101   1.000000
   26       -6.492498   1.000000
   27       -5.578712   1.000000
   28       -5.360564   1.000000
   29       -5.343461   1.000000
   30       -4.886175   1.000000
   31       -4.770736   1.000000
   32       -4.741556   1.000000
   33       -4.512509   1.000000
   34       -4.466077   1.000000
   35       -4.415139   1.000000
   36       -4.370195   1.000000
   37       -4.338404   1.000000
   38       -4.312872   1.000000
   39       -4.060459   1.000000
   40       -3.947561   1.000000
   41       -3.760116   1.000000
   42       -3.709501   1.000000
   43       -3.702335   1.000000
   44       -3.548461   1.000000
   45       -3.362208   1.000000
   46       -3.291382   1.000000
   47       -3.271529   1.000000
   48       -3.206019   1.000000
   49       -3.115386   1.000000
   50       -3.090790   1.000000
   51       -2.952669   1.000000
   52       -2.930617   1.000000
   53       -2.832264   1.000000
   54       -2.760348   1.000000
   55       -2.703503   1.000000
   56       -2.625228   1.000000
   57       -2.583507   1.000000
   58       -2.524010   1.000000
   59       -2.520091   1.000000
   60       -2.505807   1.000000
   61       -2.445116   1.000000
   62       -2.380168   1.000000
   63       -2.341604   1.000000
   64       -2.319182   1.000000
   65       -2.243676   1.000000
   66       -2.095833   1.000000
   67       -2.055840   1.000000
   68       -1.844025   1.000000
   69       -1.706995   1.000000
   70       -1.469464   1.000000
   71       -1.224543   1.000000
   72       -1.136046   1.000000
   73       -1.048993   1.000000
   74       -0.963141   1.000000
   75       -0.896296   1.000000
   76       -0.509705   1.000000
   77       -0.473797   1.000000
   78       -0.317546   1.000000
   79        0.059794   1.000000
   80        0.197966   1.000000
   81        0.207445   1.000000
   82        0.348252   1.000000
   83        0.362831   1.000000
   84        0.515214   1.000000
   85        0.527761   1.000000
   86        0.616781   1.000000
   87        0.708023   1.000000
   88        0.874176   1.000000
   89        1.039393   1.000000
   90        1.122743   1.000004
   91        1.356570   1.002230
   92        1.488722   1.019144
   93        1.602123   1.033492
   94        1.665501   0.990684
   95        1.857381   0.369012
   96        1.988161   0.007240
   97        2.020754  -0.022186
   98        2.070731  -0.035458
   99        2.116550  -0.029697
  100        2.216208  -0.009335
  101        2.250891  -0.005239
  102        2.316917  -0.001415
  103        2.337734  -0.000887
  104        2.463321  -0.000032
  105        2.510045  -0.000007
  106        2.533754  -0.000003
  107        2.608540  -0.000000
  108        2.667000  -0.000000
  109        2.701031  -0.000000
  110        2.739644  -0.000000
  111        2.792925  -0.000000
  112        2.879602  -0.000000
  113        2.910084  -0.000000
  114        2.971191  -0.000000
  115        2.995058  -0.000000
  116        3.059995  -0.000000
  117        3.081493  -0.000000
  118        3.122681  -0.000000
  119        3.180876  -0.000000
  120        3.213124  -0.000000
  121        3.374779  -0.000000
  122        3.387246  -0.000000
  123        3.477752  -0.000000
  124        3.605802  -0.000000
  125        3.822529  -0.000000
  126        4.494210  -0.000000

  0.3333333E+00  0.3916643E-15  0.1262379E-14  0.4938272E-01
    1      -12.335195   1.000000
    2      -11.708277   1.000000
    3      -11.083256   1.000000
    4      -10.925666   1.000000
    5      -10.519291   1.000000
    6      -10.269581   1.000000
    7       -9.746778   1.000000
    8       -9.730747   1.000000
    9       -9.569009   1.000000
   10       -9.566393   1.000000
   11       -9.398743   1.000000
   12       -9.387867   1.000000
   13       -9.323165   1.000000
   14       -8.306556   1.000000
   15       -7.601895   1.000000
   16       -7.582487   1.000000
   17       -7.468764   1.000000
   18       -7.382483   1.000000
   19       -7.170550   1.000000
   20       -7.127078   1.000000
   21       -6.945215   1.000000
   22       -6.852670   1.000000
   23       -6.486183   1.000000
   24       -6.329809   1.000000
   25       -6.188932   1.000000
   26       -5.969979   1.000000
   27       -5.394585   1.000000
   28       -5.199514   1.000000
   29       -5.152983   1.000000
   30       -5.076197   1.000000
   31       -5.003387   1.000000
   32       -4.922643   1.000000
   33       -4.848758   1.000000
   34       -4.776676   1.000000
   35       -4.692816   1.000000
   36       -4.617931   1.000000
   37       -4.366619   1.000000
   38       -4.212698   1.000000
   39       -4.107036   1.000000
   40       -3.996769   1.000000
   41       -3.977742   1.000000
   42       -3.622551   1.000000
   43       -3.596651   1.000000
   44       -3.560757   1.000000
   45       -3.515685   1.000000
   46       -3.510196   1.000000
   47       -3.366461   1.000000
   48       -3.304314   1.000000
   49       -3.242799   1.000000
   50       -3.145700   1.000000
   51       -3.109394   1.000000
   52       -3.012860   1.000000
   53       -2.936849   1.000000
   54       -2.877245   1.000000
   55       -2.791134   1.000000
   56       -2.709725   1.000000
   57       -2.676404   1.000000
   58       -2.640689   1.000000
   59       -2.586266   1.000000
   60       -2.520975   1.000000
   61       -2.505932   1.000000
   62       -2.438207   1.000000
   63       -2.342285   1.000000
   64       -2.294784   1.000000
   65       -2.227447   1.000000
   66       -2.167951   1.000000
   67       -2.110318   1.000000
   68       -1.656060   1.000000
   69       -1.654819   1.000000
   70       -1.536421   1.000000
   71       -1.336609   1.000000
   72       -1.259528   1.000000
   73       -0.946366   1.000000
   74       -0.903411   1.000000
   75       -0.785914   1.000000
   76       -0.748800   1.000000
   77       -0.595710   1.000000
   78       -0.541139   1.000000
   79       -0.018371   1.000000
   80        0.004461   1.000000
   81        0.172084   1.000000
   82        0.210941   1.000000
   83        0.278402   1.000000
   84        0.421629   1.000000
   85        0.471755   1.000000
   86        0.582053   1.000000
   87        0.598124   1.000000
   88        0.794435   1.000000
   89        0.854253   1.000000
   90        1.051013   1.000000
   91        1.141017   1.000007
   92        1.408647   1.005980
   93        1.438755   1.009770
   94        1.576526   1.035381
   95        1.657057   1.000619
   96        1.742997   0.819922
   97        1.790820   0.646338
   98        1.908864   0.180518
   99        1.939684   0.094660
  100        2.057764  -0.034726
  101        2.115983  -0.029815
  102        2.158773  -0.020148
  103        2.256345  -0.004750
  104        2.298853  -0.002078
  105        2.427762  -0.000089
  106        2.499656  -0.000010
  107        2.526189  -0.000004
  108        2.645916  -0.000000
  109        2.678931  -0.000000
  110        2.701478  -0.000000
  111        2.749348  -0.000000
  112        2.810876  -0.000000
  113        2.890167  -0.000000
  114        2.926251  -0.000000
  115        2.987954  -0.000000
  116        3.045653  -0.000000
  117        3.159331  -0.000000
  118        3.173318  -0.000000
  119        3.369212  -0.000000
  120        3.387872  -0.000000
  121        3.421476  -0.000000
  122        3.476338  -0.000000
  123        3.635063  -0.000000
  124        3.754810  -0.000000
  125        3.796089  -0.000000
  126        4.618632  -0.000000

  0.4444444E+00  0.3830161E-15  0.1262379E-14  0.4938272E-01
    1      -11.954038   1.000000
    2      -11.492102   1.000000
    3      -11.369948   1.000000
    4      -10.976772   1.000000
    5      -10.850400   1.000000
    6      -10.581771   1.000000
    7       -9.808897   1.000000
    8       -9.779284   1.000000
    9       -9.621789   1.000000
   10       -9.583341   1.000000
   11       -9.455668   1.000000
   12       -9.422749   1.000000
   13       -9.046569   1.000000
   14       -8.696933   1.000000
   15       -7.419805   1.000000
   16       -7.315373   1.000000
   17       -7.193177   1.000000
   18       -7.186328   1.000000
   19       -6.922464   1.000000
   20       -6.907915   1.000000
   21       -6.861644   1.000000
   22       -6.839397   1.000000
   23       -5.816510   1.000000
   24       -5.692998   1.000000
   25       -5.601754   1.000000
   26       -5.588016   1.000000
   27       -5.563213   1.000000
   28       -5.402069   1.000000
   29       -5.330715   1.000000
   30       -5.281173   1.000000
   31       -5.122178   1.000000
   32       -5.025130   1.000000
   33       -4.982022   1.000000
   34       -4.964940   1.000000
   35       -4.759257   1.000000
   36       -4.697175   1.000000
   37       -4.640011   1.000000
   38       -4.519622   1.000000
   39       -4.337082   1.000000
   40       -4.080015   1.000000
   41       -3.986105   1.000000
   42       -3.825299   1.000000
   43       -3.773454   1.000000
   44       -3.648973   1.000000
   45       -3.490156   1.000000
   46       -3.423905   1.000000
   47       -3.368938   1.000000
   48       -3.294570   1.000000
   49       -3.247830   1.000000
   50       -3.127851   1.000000
   51       -3.059172   1.000000
   52       -3.007817   1.000000
   53       -2.975757   1.000000
   54       -2.915871   1.000000
   55       -2.904197   1.000000
   56       -2.860813   1.000000
   57       -2.751037   1.000000
   58       -2.688267   1.000000
   59       -2.638566   1.000000
   60       -2.604752   1.000000
   61       -2.591143   1.000000
   62       -2.393004   1.000000
   63       -2.346846   1.000000
   64       -2.304446   1.000000
   65       -2.163408   1.000000
   66       -2.090379   1.000000
   67       -2.023839   1.000000
   68       -1.892780   1.000000
   69       -1.586959   1.000000
   70       -1.445681   1.000000
   71       -1.369984   1.000000
   72       -1.275765   1.000000
   73       -1.218706   1.000000
   74       -0.893779   1.000000
   75       -0.781761   1.000000
   76       -0.675224   1.000000
   77       -0.413661   1.000000
   78       -0.366520   1.000000
   79       -0.177071   1.000000
   80       -0.133821   1.000000
   81       -0.065719   1.000000
   82        0.028253   1.000000
   83        0.239578   1.000000
   84        0.420351   1.000000
   85        0.465453   1.000000
   86        0.549777   1.000000
   87        0.717466   1.000000
   88        0.880730   1.000000
   89        0.973363   1.000000
   90        0.988620   1.000000
   91        1.080296   1.000001
   92        1.112275   1.000003
   93        1.266149   1.000274
   94        1.391978   1.004442
   95        1.409152   1.006032
   96        1.562765   1.034324
   97        1.593955   1.034759
   98        1.691149   0.950563
   99        1.743647   0.817870
  100        1.835119   0.461461
  101        1.963640   0.044314
  102        2.012246  -0.016440
  103        2.094720  -0.033616
  104        2.119067  -0.029166
  105        2.310378  -0.001630
  106        2.377983  -0.000336
  107        2.500018  -0.000010
  108        2.517556  -0.000006
  109        2.573666  -0.000001
  110        2.672425  -0.000000
  111        2.720467  -0.000000
  112        2.767355  -0.000000
  113        2.944949  -0.000000
  114        3.022783  -0.000000
  115        3.110334  -0.000000
  116        3.177038  -0.000000
  117        3.252879  -0.000000
  118        3.294092  -0.000000
  119        3.451919  -0.000000
  120        3.548771  -0.000000
  121        3.627757  -0.000000
  122        3.657357  -0.000000
  123        3.746212  -0.000000
  124        3.826691  -0.000000
  125        4.008063  -0.000000
  126        4.218651  -0.000000

  0.1111111E+00  0.1111111E+00  0.1262379E-14  0.2469136E-01
    1      -12.673161   1.000000
    2      -12.000477   1.000000
    3      -11.283095   1.000000
    4       -9.981817   1.000000
    5       -9.975524   1.000000
    6       -9.858793   1.000000
    7       -9.789079   1.000000
    8       -9.680420   1.000000
    9       -9.627842   1.000000
   10       -9.570378   1.000000
   11       -9.493921   1.000000
   12       -9.050526   1.000000
   13       -8.726868   1.000000
   14       -8.726120   1.000000
   15       -8.079486   1.000000
   16       -7.911777   1.000000
   17       -7.847110   1.000000
   18       -7.623718   1.000000
   19       -7.582315   1.000000
   20       -7.470607   1.000000
   21       -7.227121   1.000000
   22       -7.158576   1.000000
   23       -6.846047   1.000000
   24       -6.788795   1.000000
   25       -6.668727   1.000000
   26       -6.589135   1.000000
   27       -5.648121   1.000000
   28       -5.617211   1.000000
   29       -5.107840   1.000000
   30       -5.076847   1.000000
   31       -4.794361   1.000000
   32       -4.704905   1.000000
   33       -4.514065   1.000000
   34       -4.465518   1.000000
   35       -4.410962   1.000000
   36       -4.398070   1.000000
   37       -4.071673   1.000000
   38       -4.038375   1.000000
   39       -3.928172   1.000000
   40       -3.906418   1.000000
   41       -3.794555   1.000000
   42       -3.708503   1.000000
   43       -3.644803   1.000000
   44       -3.617747   1.000000
   45       -3.538737   1.000000
   46       -3.371724   1.000000
   47       -3.215412   1.000000
   48       -3.211530   1.000000
   49       -3.117457   1.000000
   50       -3.063865   1.000000
   51       -2.989250   1.000000
   52       -2.852267   1.000000
   53       -2.820600   1.000000
   54       -2.746442   1.000000
   55       -2.686902   1.000000
   56       -2.652638   1.000000
   57       -2.527408   1.000000
   58       -2.491890   1.000000
   59       -2.477191   1.000000
   60       -2.437029   1.000000
   61       -2.408051   1.000000
   62       -2.360877   1.000000
   63       -2.280635   1.000000
   64       -2.255172   1.000000
   65       -2.199720   1.000000
   66       -2.192246   1.000000
   67       -1.958521   1.000000
   68       -1.894951   1.000000
   69       -1.812615   1.000000
   70       -1.503128   1.000000
   71       -1.169946   1.000000
   72       -1.149774   1.000000
   73       -1.033963   1.000000
   74       -0.963600   1.000000
   75       -0.801651   1.000000
   76       -0.527408   1.000000
   77       -0.243077   1.000000
   78       -0.220198   1.000000
   79        0.044344   1.000000
   80        0.051197   1.000000
   81        0.215100   1.000000
   82        0.290484   1.000000
   83        0.456755   1.000000
   84        0.470425   1.000000
   85        0.625688   1.000000
   86        0.750836   1.000000
   87        0.796241   1.000000
   88        0.868793   1.000000
   89        1.103829   1.000002
   90        1.300319   1.000640
   91        1.376102   1.003293
   92        1.456287   1.012636
   93        1.531489   1.028856
   94        1.666805   0.989011
   95        1.815877   0.542777
   96        1.957024   0.056782
   97        1.990719   0.004161
   98        2.095404  -0.033518
   99        2.133494  -0.025954
  100        2.163174  -0.019167
  101        2.261264  -0.004342
  102        2.340823  -0.000826
  103        2.471287  -0.000025
  104        2.553862  -0.000002
  105        2.580146  -0.000001
  106        2.597551  -0.000000
  107        2.638107  -0.000000
  108        2.666854  -0.000000
  109        2.762547  -0.000000
  110        2.763032  -0.000000
  111        2.851198  -0.000000
  112        2.865473  -0.000000
  113        2.920843  -0.000000
  114        2.941024  -0.000000
  115        2.966221  -0.000000
  116        2.998052  -0.000000
  117        3.115079  -0.000000
  118        3.136438  -0.000000
  119        3.215123  -0.000000
  120        3.226530  -0.000000
  121        3.301892  -0.000000
  122        3.320948  -0.000000
  123        3.533094  -0.000000
  124        3.722930  -0.000000
  125        3.810934  -0.000000
  126        4.566245  -0.000000

  0.2222222E+00  0.1111111E+00  0.1262379E-14  0.4938272E-01
    1      -12.446668   1.000000
    2      -11.804075   1.000000
    3      -11.146783   1.000000
    4      -10.591260   1.000000
    5      -10.253697   1.000000
    6      -10.174986   1.000000
    7      -10.070628   1.000000
    8       -9.943519   1.000000
    9       -9.793236   1.000000
   10       -9.410430   1.000000
   11       -9.385376   1.000000
   12       -9.020634   1.000000
   13       -8.887981   1.000000
   14       -8.220478   1.000000
   15       -8.066356   1.000000
   16       -7.865260   1.000000
   17       -7.789847   1.000000
   18       -7.528625   1.000000
   19       -7.188162   1.000000
   20       -6.913878   1.000000
   21       -6.870736   1.000000
   22       -6.678934   1.000000
   23       -6.639352   1.000000
   24       -6.605612   1.000000
   25       -6.381029   1.000000
   26       -6.247105   1.000000
   27       -5.626741   1.000000
   28       -5.448000   1.000000
   29       -5.170940   1.000000
   30       -4.953118   1.000000
   31       -4.868968   1.000000
   32       -4.815403   1.000000
   33       -4.680789   1.000000
   34       -4.641298   1.000000
   35       -4.403121   1.000000
   36       -4.334117   1.000000
   37       -4.307507   1.000000
   38       -4.226418   1.000000
   39       -4.117898   1.000000
   40       -4.000348   1.000000
   41       -3.872172   1.000000
   42       -3.796905   1.000000
   43       -3.601733   1.000000
   44       -3.578374   1.000000
   45       -3.563191   1.000000
   46       -3.419600   1.000000
   47       -3.379417   1.000000
   48       -3.346378   1.000000
   49       -3.259327   1.000000
   50       -3.232797   1.000000
   51       -3.017989   1.000000
   52       -2.985861   1.000000
   53       -2.932555   1.000000
   54       -2.855594   1.000000
   55       -2.781342   1.000000
   56       -2.735135   1.000000
   57       -2.680376   1.000000
   58       -2.571585   1.000000
   59       -2.521671   1.000000
   60       -2.475482   1.000000
   61       -2.447245   1.000000
   62       -2.352757   1.000000
   63       -2.320140   1.000000
   64       -2.287528   1.000000
   65       -2.279861   1.000000
   66       -2.183142   1.000000
   67       -2.071670   1.000000
   68       -1.766134   1.000000
   69       -1.605915   1.000000
   70       -1.407309   1.000000
   71       -1.333567   1.000000
   72       -1.223645   1.000000
   73       -1.047591   1.000000
   74       -0.973518   1.000000
   75       -0.817265   1.000000
   76       -0.656840   1.000000
   77       -0.529693   1.000000
   78       -0.373581   1.000000
   79       -0.035341   1.000000
   80        0.069901   1.000000
   81        0.138994   1.000000
   82        0.271595   1.000000
   83        0.281729   1.000000
   84        0.320756   1.000000
   85        0.514829   1.000000
   86        0.590857   1.000000
   87        0.663873   1.000000
   88        0.824671   1.000000
   89        1.002446   1.000000
   90        1.041264   1.000000
   91        1.129831   1.000005
   92        1.356665   1.002235
   93        1.568465   1.034898
   94        1.677767   0.973429
   95        1.695425   0.942333
   96        1.783286   0.676249
   97        1.877766   0.288885
   98        1.919594   0.147999
   99        2.132547  -0.026171
  100        2.170747  -0.017525
  101        2.224578  -0.008180
  102        2.295420  -0.002231
  103        2.384130  -0.000287
  104        2.420272  -0.000110
  105        2.486765  -0.000015
  106        2.534050  -0.000003
  107        2.564742  -0.000001
  108        2.670031  -0.000000
  109        2.677465  -0.000000
  110        2.733748  -0.000000
  111        2.780521  -0.000000
  112        2.825311  -0.000000
  113        2.919413  -0.000000
  114        2.944226  -0.000000
  115        2.987816  -0.000000
  116        3.010420  -0.000000
  117        3.069442  -0.000000
  118        3.140287  -0.000000
  119        3.154207  -0.000000
  120        3.259852  -0.000000
  121        3.284129  -0.000000
  122        3.312459  -0.000000
  123        3.426379  -0.000000
  124        3.530515  -0.000000
  125        3.684905  -0.000000
  126        3.804356  -0.000000

  0.3333333E+00  0.1111111E+00  0.1262379E-14  0.4938272E-01
    1      -12.115496   1.000000
    2      -11.521638   1.000000
    3      -11.173286   1.000000
    4      -10.949325   1.000000
    5      -10.718416   1.000000
    6      -10.409448   1.000000