   76   76   85    1
  0.2032295E+02  0.1036705E-08  0.2428040E-08  0.6136055E-09  0.5000000E-15
   1.0000000000000000E-004
  CAR 
 Name                                    
    280     23    184

  0.3742002E-15  0.1262379E-14  0.3742002E-15  0.2222222E-01
    1      -13.915477   1.000000
    2      -12.742963   1.000000
    3      -12.734482   1.000000
    4      -12.723099   1.000000
    5      -11.777055   1.000000
    6      -11.658719   1.000000
    7      -11.570963   1.000000
    8      -11.365827   1.000000
    9      -11.349922   1.000000
   10      -11.219405   1.000000
   11      -11.177675   1.000000
   12      -10.925298   1.000000
   13      -10.849537   1.000000
   14      -10.413170   1.000000
   15      -10.353843   1.000000
   16      -10.330607   1.000000
   17      -10.078767   1.000000
   18       -9.984596   1.000000
   19       -9.834136   1.000000
   20       -9.534837   1.000000
   21       -9.508187   1.000000
   22       -9.430318   1.000000
   23       -9.391363   1.000000
   24       -9.302812   1.000000
   25       -8.772719   1.000000
   26       -8.760843   1.000000
   27       -8.733721   1.000000
   28       -8.425559   1.000000
   29       -8.361953   1.000000
   30       -8.066605   1.000000
   31       -8.059002   1.000000
   32       -7.844545   1.000000
   33       -7.682687   1.000000
   34       -7.375837   1.000000
   35       -7.362093   1.000000
   36       -7.195272   1.000000
   37       -7.117949   1.000000
   38       -6.962327   1.000000
   39       -6.764620   1.000000
   40       -6.736866   1.000000
   41       -6.707878   1.000000
   42       -6.627909   1.000000
   43       -6.618489   1.000000
   44       -6.613535   1.000000
   45       -6.483886   1.000000
   46       -6.197912   1.000000
   47       -6.169212   1.000000
   48       -6.023053   1.000000
   49       -6.022866   1.000000
   50       -5.892279   1.000000
   51       -5.703003   1.000000
   52       -5.688664   1.000000
   53       -5.582459   1.000000
   54       -5.578860   1.000000
   55       -5.546947   1.000000
   56       -5.537271   1.000000
   57       -5.522673   1.000000
   58       -5.388257   1.000000
   59       -5.305441   1.000000
   60       -5.157906   1.000000
   61       -5.137169   1.000000
   62       -5.082959   1.000000
   63       -5.026408   1.000000
   64       -4.970159   1.000000
   65       -4.679269   1.000000
   66       -4.598863   1.000000
   67       -4.595217   1.000000
   68       -4.478517   1.000000
   69       -4.433113   1.000000
   70       -4.186468   1.000000
   71       -4.154907   1.000000
   72       -4.042633   1.000000
   73       -4.031455   1.000000
   74       -3.980935   1.000000
   75       -3.935544   1.000000
   76       -3.898179   1.000000
   77       -3.868265   1.000000
   78       -3.853931   1.000000
   79       -3.838215   1.000000
   80       -3.835752   1.000000
   81       -3.809711   1.000000
   82       -3.705034   1.000000
   83       -3.550945   1.000000
   84       -3.522726   1.000000
   85       -3.519238   1.000000
   86       -3.488788   1.000000
   87       -3.448251   1.000000
   88       -3.434526   1.000000
   89       -3.422319   1.000000
   90       -3.383987   1.000000
   91       -3.377031   1.000000
   92       -3.357767   1.000000
   93       -3.352061   1.000000
   94       -3.177984   1.000000
   95       -3.110494   1.000000
   96       -2.999510   1.000000
   97       -2.854891   1.000000
   98       -2.842932   1.000000
   99       -2.798530   1.000000
  100       -2.687921   1.000000
  101       -2.612839   1.000000
  102       -2.511062   1.000000
  103       -2.366559   1.000000
  104       -2.359797   1.000000
  105       -2.281573   1.000000
  106       -2.204601   1.000000
  107       -2.141536   1.000000
  108       -2.012948   1.000000
  109       -2.005895   1.000000
  110       -1.923858   1.000000
  111       -1.904620   1.000000
  112       -1.863581   1.000000
  113       -1.826734   1.000000
  114       -1.799287   1.000000
  115       -1.653320   1.000000
  116       -1.617491   1.000000
  117       -1.524470   1.000000
  118       -1.523136   1.000000
  119       -1.451543   1.000000
  120       -1.334187   1.000000
  121       -1.295420   1.000000
  122       -1.213166   1.000000
  123       -0.877583   1.000000
  124       -0.765181   1.000000
  125       -0.717370   1.000000
  126       -0.574301   1.000000
  127       -0.392619   1.000000
  128       -0.376593   1.000000
  129       -0.333716   1.000000
  130       -0.263589   1.000000
  131       -0.003378   1.000000
  132        0.046824   1.000000
  133        0.155673   1.000072
  134        0.268313   1.010236
  135        0.338259   1.035456
  136        0.345506   1.034478
  137        0.381329   0.987634
  138        0.396367   0.937296
  139        0.474477   0.382179
  140        0.515937   0.101025
  141        0.560713  -0.025448
  142        0.626514  -0.020271
  143        0.651494  -0.010546
  144        0.681297  -0.003844
  145        0.693471  -0.002385
  146        0.705735  -0.001423
  147        0.706807  -0.001358
  148        0.824833  -0.000002
  149        0.879881  -0.000000
  150        0.907692  -0.000000
  151        1.104231  -0.000000
  152        1.126999  -0.000000
  153        1.135376  -0.000000
  154        1.193752  -0.000000
  155        1.229576  -0.000000
  156        1.278526  -0.000000
  157        1.281036  -0.000000
  158        1.364797  -0.000000
  159        1.429552  -0.000000
  160        1.438296  -0.000000
  161        1.451106  -0.000000
  162        1.501133  -0.000000
  163        1.507273  -0.000000
  164        1.522413  -0.000000
  165        1.549393  -0.000000
  166        1.599234  -0.000000
  167        1.672668  -0.000000
  168        1.693762  -0.000000
  169        1.698740  -0.000000
  170        1.734838  -0.000000
  171        1.753608  -0.000000
  172        1.763140  -0.000000
  173        1.779151  -0.000000
  174        1.804447  -0.000000
  175        1.827153  -0.000000
  176        1.839372  -0.000000
  177        1.863761  -0.000000
  178        1.888231  -0.000000
  179        1.951423  -0.000000
  180        2.051421  -0.000000
  181        2.054246  -0.000000
  182        2.163358  -0.000000
  183        2.228330  -0.000000
  184        2.287360  -0.000000

  0.2000000E+00  0.1262379E-14  0.3742002E-15  0.4444444E-01
    1      -13.866195   1.000000
    2      -13.147121   1.000000
    3      -12.688323   1.000000
    4      -12.245277   1.000000
    5      -12.009105   1.000000
    6      -11.761032   1.000000
    7      -11.512202   1.000000
    8      -11.179353   1.000000
    9      -11.172467   1.000000
   10      -11.167722   1.000000
   11      -11.148235   1.000000
   12      -10.992059   1.000000
   13      -10.755023   1.000000
   14      -10.573517   1.000000
   15      -10.495353   1.000000
   16      -10.446792   1.000000
   17      -10.394533   1.000000
   18       -9.819775   1.000000
   19       -9.772687   1.000000
   20       -9.594684   1.000000
   21       -9.512205   1.000000
   22       -9.371281   1.000000
   23       -9.348633   1.000000
   24       -9.272205   1.000000
   25       -8.956570   1.000000
   26       -8.912109   1.000000
   27       -8.334915   1.000000
   28       -8.247509   1.000000
   29       -8.163733   1.000000
   30       -8.104360   1.000000
   31       -8.011082   1.000000
   32       -7.983050   1.000000
   33       -7.557857   1.000000
   34       -7.515249   1.000000
   35       -7.326322   1.000000
   36       -7.298611   1.000000
   37       -7.190143   1.000000
   38       -7.132215   1.000000
   39       -6.830670   1.000000
   40       -6.806792   1.000000
   41       -6.749254   1.000000
   42       -6.670980   1.000000
   43       -6.582065   1.000000
   44       -6.541801   1.000000
   45       -6.470055   1.000000
   46       -6.225992   1.000000
   47       -6.092548   1.000000
   48       -6.023855   1.000000
   49       -5.992514   1.000000
   50       -5.951200   1.000000
   51       -5.744276   1.000000
   52       -5.702356   1.000000
   53       -5.619120   1.000000
   54       -5.597628   1.000000
   55       -5.522223   1.000000
   56       -5.455057   1.000000
   57       -5.265293   1.000000
   58       -5.256520   1.000000
   59       -5.255276   1.000000
   60       -5.186080   1.000000
   61       -5.127063   1.000000
   62       -5.047775   1.000000
   63       -4.960243   1.000000
   64       -4.947368   1.000000
   65       -4.881549   1.000000
   66       -4.732367   1.000000
   67       -4.654100   1.000000
   68       -4.492976   1.000000
   69       -4.404542   1.000000
   70       -4.207076   1.000000
   71       -4.151209   1.000000
   72       -4.029645   1.000000
   73       -4.023516   1.000000
   74       -4.010584   1.000000
   75       -4.007743   1.000000
   76       -3.946183   1.000000
   77       -3.908226   1.000000
   78       -3.851686   1.000000
   79       -3.795924   1.000000
   80       -3.755444   1.000000
   81       -3.684730   1.000000
   82       -3.665403   1.000000
   83       -3.620654   1.000000
   84       -3.542352   1.000000
   85       -3.534227   1.000000
   86       -3.511777   1.000000
   87       -3.448490   1.000000
   88       -3.411401   1.000000
   89       -3.407273   1.000000
   90       -3.370114   1.000000
   91       -3.366896   1.000000
   92       -3.358720   1.000000
   93       -3.306589   1.000000
   94       -3.240812   1.000000
   95       -3.199833   1.000000
   96       -2.999963   1.000000
   97       -2.896565   1.000000
   98       -2.875467   1.000000
   99       -2.745224   1.000000
  100       -2.694724   1.000000
  101       -2.617526   1.000000
  102       -2.531071   1.000000
  103       -2.418783   1.000000
  104       -2.340013   1.000000
  105       -2.266174   1.000000
  106       -2.249461   1.000000
  107       -2.117292   1.000000
  108       -2.040529   1.000000
  109       -1.922564   1.000000
  110       -1.870041   1.000000
  111       -1.828708   1.000000
  112       -1.818659   1.000000
  113       -1.779481   1.000000
  114       -1.734570   1.000000
  115       -1.732657   1.000000
  116       -1.549480   1.000000
  117       -1.500570   1.000000
  118       -1.456223   1.000000
  119       -1.380916   1.000000
  120       -1.334665   1.000000
  121       -1.220036   1.000000
  122       -1.161834   1.000000
  123       -0.874221   1.000000
  124       -0.851897   1.000000
  125       -0.735077   1.000000
  126       -0.691976   1.000000
  127       -0.513127   1.000000
  128       -0.390562   1.000000
  129       -0.339890   1.000000
  130       -0.324130   1.000000
  131       -0.171419   1.000000
  132       -0.132193   1.000000
  133       -0.008538   1.000000
  134        0.160269   1.000093
  135        0.212961   1.001297
  136        0.299217   1.022519
  137        0.367018   1.016827
  138        0.389387   0.963366
  139        0.511810   0.122264
  140        0.639276  -0.014868
  141        0.658162  -0.008589
  142        0.671936  -0.005411
  143        0.674115  -0.005007
  144        0.712747  -0.001042
  145        0.717459  -0.000840
  146        0.742572  -0.000244
  147        0.753442  -0.000137
  148        0.851292  -0.000000
  149        0.854028  -0.000000
  150        0.935711  -0.000000
  151        1.132517  -0.000000
  152        1.172078  -0.000000
  153        1.204106  -0.000000
  154        1.231591  -0.000000
  155        1.330733  -0.000000
  156        1.332721  -0.000000
  157        1.345604  -0.000000
  158        1.394232  -0.000000
  159        1.402858  -0.000000
  160        1.443040  -0.000000
  161        1.493991  -0.000000
  162        1.517581  -0.000000
  163        1.533612  -0.000000
  164        1.571720  -0.000000
  165        1.575542  -0.000000
  166        1.613305  -0.000000
  167        1.649650  -0.000000
  168        1.681691  -0.000000
  169        1.710749  -0.000000
  170        1.728024  -0.000000
  171        1.758503  -0.000000
  172        1.782226  -0.000000
  173        1.804654  -0.000000
  174        1.845471  -0.000000
  175        1.864484  -0.000000
  176        1.908541  -0.000000
  177        1.921029  -0.000000
  178        1.936491  -0.000000
  179        2.004566  -0.000000
  180        2.021556  -0.000000
  181        2.053809  -0.000000
  182        2.109054  -0.000000
  183        2.164839  -0.000000
  184        2.214520  -0.000000

  0.4000000E+00  0.1262379E-14  0.3742002E-15  0.4444444E-01
    1      -13.719375   1.000000
    2      -13.478043   1.000000
    3      -12.550591   1.000000
    4      -12.323843   1.000000
    5      -11.712470   1.000000
    6      -11.688765   1.000000
    7      -11.630048   1.000000
    8      -11.137978   1.000000
    9      -11.100094   1.000000
   10      -11.091934   1.000000
   11      -11.039168   1.000000
   12      -10.926664   1.000000
   13      -10.868017   1.000000
   14      -10.698140   1.000000
   15      -10.618857   1.000000
   16      -10.591978   1.000000
   17      -10.489435   1.000000
   18      -10.019463   1.000000
   19       -9.774478   1.000000
   20       -9.695662   1.000000
   21       -9.384043   1.000000
   22       -9.373830   1.000000
   23       -9.320184   1.000000
   24       -9.270305   1.000000
   25       -9.050101   1.000000
   26       -8.724149   1.000000
   27       -8.255677   1.000000
   28       -8.103888   1.000000
   29       -7.901991   1.000000
   30       -7.860701   1.000000
   31       -7.801773   1.000000
   32       -7.796315   1.000000
   33       -7.751829   1.000000
   34       -7.634373   1.000000
   35       -7.473490   1.000000
   36       -7.437302   1.000000
   37       -7.290364   1.000000
   38       -7.282571   1.000000
   39       -7.272993   1.000000
   40       -6.982178   1.000000
   41       -6.716992   1.000000
   42       -6.699756   1.000000
   43       -6.561515   1.000000
   44       -6.437964   1.000000
   45       -6.362017   1.000000
   46       -6.205309   1.000000
   47       -6.045493   1.000000
   48       -5.910892   1.000000
   49       -5.865361   1.000000
   50       -5.834693   1.000000
   51       -5.805392   1.000000
   52       -5.759942   1.000000
   53       -5.695450   1.000000
   54       -5.636187   1.000000
   55       -5.498268   1.000000
   56       -5.485935   1.000000
   57       -5.350767   1.000000
   58       -5.321987   1.000000
   59       -5.083752   1.000000
   60       -5.075505   1.000000
   61       -5.056328   1.000000
   62       -5.028389   1.000000
   63       -5.001371   1.000000
   64       -4.826523   1.000000
   65       -4.801428   1.000000
   66       -4.687602   1.000000
   67       -4.626044   1.000000
   68       -4.488752   1.000000
   69       -4.397093   1.000000
   70       -4.307641   1.000000
   71       -4.276713   1.000000
   72       -4.209166   1.000000
   73       -4.096729   1.000000
   74       -3.979374   1.000000
   75       -3.966615   1.000000
   76       -3.945802   1.000000
   77       -3.916524   1.000000
   78       -3.891701   1.000000
   79       -3.862555   1.000000
   80       -3.851569   1.000000
   81       -3.718088   1.000000
   82       -3.614029   1.000000
   83       -3.600070   1.000000
   84       -3.594186   1.000000
   85       -3.588569   1.000000
   86       -3.530940   1.000000
   87       -3.447505   1.000000
   88       -3.398093   1.000000
   89       -3.358323   1.000000
   90       -3.340245   1.000000
   91       -3.252906   1.000000
   92       -3.213237   1.000000
   93       -3.192294   1.000000
   94       -3.172589   1.000000
   95       -3.168156   1.000000
   96       -3.029256   1.000000
   97       -3.023198   1.000000
   98       -2.953903   1.000000
   99       -2.863679   1.000000
  100       -2.754508   1.000000
  101       -2.728987   1.000000
  102       -2.565166   1.000000
  103       -2.433459   1.000000
  104       -2.305812   1.000000
  105       -2.291701   1.000000
  106       -2.106092   1.000000
  107       -2.087379   1.000000
  108       -2.042962   1.000000
  109       -1.961092   1.000000
  110       -1.849312   1.000000
  111       -1.848105   1.000000
  112       -1.824029   1.000000
  113       -1.650550   1.000000
  114       -1.570159   1.000000
  115       -1.511517   1.000000
  116       -1.493438   1.000000
  117       -1.469761   1.000000
  118       -1.427089   1.000000
  119       -1.220418   1.000000
  120       -1.147062   1.000000
  121       -1.015779   1.000000
  122       -0.998648   1.000000
  123       -0.969600   1.000000
  124       -0.968422   1.000000
  125       -0.863974   1.000000
  126       -0.811887   1.000000
  127       -0.676710   1.000000
  128       -0.670527   1.000000
  129       -0.611101   1.000000
  130       -0.483391   1.000000
  131       -0.332509   1.000000
  132       -0.327341   1.000000
  133       -0.028400   1.000000
  134       -0.019615   1.000000
  135        0.141845   1.000032
  136        0.346315   1.034246
  137        0.351098   1.032283
  138        0.426519   0.769302
  139        0.464019   0.469403
  140        0.563014  -0.027631
  141        0.616930  -0.024672
  142        0.626413  -0.020316
  143        0.712610  -0.001049
  144        0.737695  -0.000314
  145        0.761401  -0.000088
  146        0.799612  -0.000009
  147        0.868113  -0.000000
  148        0.968949  -0.000000
  149        0.994564  -0.000000
  150        1.018899  -0.000000
  151        1.099670  -0.000000
  152        1.239739  -0.000000
  153        1.268409  -0.000000
  154        1.301919  -0.000000
  155        1.351552  -0.000000
  156        1.374686  -0.000000
  157        1.423752  -0.000000
  158        1.465792  -0.000000
  159        1.519962  -0.000000
  160        1.544332  -0.000000
  161        1.547425  -0.000000
  162        1.567108  -0.000000
  163        1.581126  -0.000000
  164        1.594947  -0.000000
  165        1.635175  -0.000000
  166        1.683355  -0.000000
  167        1.696489  -0.000000
  168        1.704310  -0.000000
  169        1.730162  -0.000000
  170        1.762305  -0.000000
  171        1.771456  -0.000000
  172        1.803104  -0.000000
  173        1.835542  -0.000000
  174        1.862698  -0.000000
  175        1.889892  -0.000000
  176        1.924042  -0.000000
  177        1.953201  -0.000000
  178        1.987990  -0.000000
  179        2.045222  -0.000000
  180        2.058426  -0.000000
  181        2.085489  -0.000000
  182        2.117292  -0.000000
  183        2.153458  -0.000000
  184        2.162090  -0.000000

  0.3742002E-15  0.1262379E-14  0.1111111E+00  0.4444444E-01
    1      -13.870009   1.000000
    2      -12.708224   1.000000
    3      -12.695777   1.000000
    4      -12.688417   1.000000
    5      -11.883058   1.000000
    6      -11.629955   1.000000
    7      -11.542219   1.000000
    8      -11.412142   1.000000
    9      -11.396460   1.000000
   10      -11.261720   1.000000
   11      -11.165990   1.000000
   12      -10.936437   1.000000
   13      -10.861681   1.000000
   14      -10.415870   1.000000
   15      -10.354156   1.000000
   16      -10.303683   1.000000
   17      -10.059976   1.000000
   18       -9.946296   1.000000
   19       -9.850138   1.000000
   20       -9.536323   1.000000
   21       -9.516670   1.000000
   22       -9.418967   1.000000
   23       -9.412007   1.000000
   24       -9.310091   1.000000
   25       -8.765595   1.000000
   26       -8.755209   1.000000
   27       -8.743419   1.000000
   28       -8.439024   1.000000
   29       -8.355980   1.000000
   30       -8.080347   1.000000
   31       -7.900918   1.000000
   32       -7.843956   1.000000
   33       -7.770950   1.000000
   34       -7.484933   1.000000
   35       -7.347400   1.000000
   36       -7.229681   1.000000
   37       -7.181577   1.000000
   38       -6.930539   1.000000
   39       -6.783929   1.000000
   40       -6.755185   1.000000
   41       -6.679731   1.000000
   42       -6.556380   1.000000
   43       -6.554838   1.000000
   44       -6.550918   1.000000
   45       -6.469308   1.000000
   46       -6.211469   1.000000
   47       -6.183813   1.000000
   48       -6.069163   1.000000
   49       -6.042617   1.000000
   50       -5.852901   1.000000
   51       -5.693486   1.000000
   52       -5.672849   1.000000
   53       -5.606685   1.000000
   54       -5.600814   1.000000
   55       -5.572622   1.000000
   56       -5.555597   1.000000
   57       -5.370545   1.000000
   58       -5.341404   1.000000
   59       -5.256315   1.000000
   60       -5.158227   1.000000
   61       -5.084495   1.000000
   62       -5.073410   1.000000
   63       -4.996238   1.000000
   64       -4.946355   1.000000
   65       -4.615729   1.000000
   66       -4.569856   1.000000
   67       -4.548339   1.000000
   68       -4.467445   1.000000
   69       -4.435346   1.000000
   70       -4.187131   1.000000
   71       -4.164761   1.000000
   72       -4.088863   1.000000
   73       -4.027711   1.000000
   74       -3.993944   1.000000
   75       -3.972978   1.000000
   76       -3.898899   1.000000
   77       -3.894031   1.000000
   78       -3.890597   1.000000
   79       -3.848663   1.000000
   80       -3.839335   1.000000
   81       -3.837580   1.000000
   82       -3.765205   1.000000
   83       -3.685291   1.000000
   84       -3.653962   1.000000
   85       -3.623146   1.000000
   86       -3.589098   1.000000
   87       -3.528345   1.000000
   88       -3.475297   1.000000
   89       -3.434650   1.000000
   90       -3.408608   1.000000
   91       -3.395452   1.000000
   92       -3.369104   1.000000
   93       -3.316635   1.000000
   94       -3.151657   1.000000
   95       -3.133210   1.000000
   96       -2.961579   1.000000
   97       -2.858423   1.000000
   98       -2.780743   1.000000
   99       -2.756860   1.000000
  100       -2.612493   1.000000
  101       -2.536959   1.000000
  102       -2.423440   1.000000
  103       -2.407742   1.000000
  104       -2.391890   1.000000
  105       -2.336694   1.000000
  106       -2.184029   1.000000
  107       -2.114816   1.000000
  108       -2.108392   1.000000
  109       -1.979597   1.000000
  110       -1.945696   1.000000
  111       -1.901161   1.000000
  112       -1.849439   1.000000
  113       -1.825238   1.000000
  114       -1.738214   1.000000
  115       -1.685761   1.000000
  116       -1.609987   1.000000
  117       -1.584825   1.000000
  118       -1.526889   1.000000
  119       -1.408741   1.000000
  120       -1.265475   1.000000
  121       -1.214570   1.000000
  122       -1.129870   1.000000
  123       -0.917045   1.000000
  124       -0.815469   1.000000
  125       -0.669607   1.000000
  126       -0.558187   1.000000
  127       -0.495571   1.000000
  128       -0.438613   1.000000
  129       -0.374791   1.000000
  130       -0.151558   1.000000
  131       -0.130282   1.000000
  132       -0.073399   1.000000
  133        0.085681   1.000001
  134        0.228648   1.002516
  135        0.297948   1.021935
  136        0.331474   1.034871
  137        0.341302   1.035274
  138        0.350018   1.032818
  139        0.448779   0.597622
  140        0.481854   0.323001
  141        0.507752   0.144796
  142        0.527484   0.050727
  143        0.655278  -0.009400
  144        0.704694  -0.001489
  145        0.717809  -0.000826
  146        0.827145  -0.000001
  147        0.879413  -0.000000
  148        0.906176  -0.000000
  149        0.981074  -0.000000
  150        1.067668  -0.000000
  151        1.072713  -0.000000
  152        1.080846  -0.000000
  153        1.159311  -0.000000
  154        1.187556  -0.000000
  155        1.240595  -0.000000
  156        1.276049  -0.000000
  157        1.319288  -0.000000
  158        1.337694  -0.000000
  159        1.402421  -0.000000
  160        1.410266  -0.000000
  161        1.471789  -0.000000
  162        1.486746  -0.000000
  163        1.531526  -0.000000
  164        1.544392  -0.000000
  165        1.575457  -0.000000
  166        1.600215  -0.000000
  167        1.617844  -0.000000
  168        1.632383  -0.000000
  169        1.682850  -0.000000
  170        1.706671  -0.000000
  171        1.739935  -0.000000
  172        1.741351  -0.000000
  173        1.795166  -0.000000
  174        1.833173  -0.000000
  175        1.848129  -0.000000
  176        1.909784  -0.000000
  177        1.914621  -0.000000
  178        1.929427  -0.000000
  179        1.932469  -0.000000
  180        2.008743  -0.000000
  181        2.051291  -0.000000
  182        2.094299  -0.000000
  183        2.183889  -0.000000
  184        2.269686  -0.000000

  0.2000000E+00  0.1262379E-14  0.1111111E+00  0.4444444E-01
    1      -13.821125   1.000000
    2      -13.108373   1.000000
    3      -12.649967   1.000000
    4      -12.216145   1.000000
    5      -11.976705   1.000000
    6      -11.864097   1.000000
    7      -11.574300   1.000000
    8      -11.241969   1.000000
    9      -11.201833   1.000000
   10      -11.133246   1.000000
   11      -11.124996   1.000000
   12      -11.016453   1.000000
   13      -10.757720   1.000000
   14      -10.546442   1.000000
   15      -10.484459   1.000000
   16      -10.431065   1.000000
   17      -10.403938   1.000000
   18       -9.836993   1.000000
   19       -9.752943   1.000000
   20       -9.591046   1.000000
   21       -9.498846   1.000000
   22       -9.395724   1.000000
   23       -9.339213   1.000000
   24       -9.276673   1.000000
   25       -8.958707   1.000000
   26       -8.904789   1.000000
   27       -8.354685   1.000000
   28       -8.253984   1.000000
   29       -8.160833   1.000000
   30       -8.096868   1.000000
   31       -8.027511   1.000000
   32       -7.831041   1.000000
   33       -7.632993   1.000000
   34       -7.598360   1.000000
   35       -7.307610   1.000000
   36       -7.298176   1.000000
   37       -7.259376   1.000000
   38       -7.038444   1.000000
   39       -6.872534   1.000000
   40       -6.796297   1.000000
   41       -6.779828   1.000000
   42       -6.650832   1.000000
   43       -6.542937   1.000000
   44       -6.477987   1.000000
   45       -6.469473   1.000000
   46       -6.377051   1.000000
   47       -6.128954   1.000000
   48       -6.037808   1.000000
   49       -5.919399   1.000000
   50       -5.786904   1.000000
   51       -5.741087   1.000000
   52       -5.705082   1.000000
   53       -5.642250   1.000000
   54       -5.597121   1.000000
   55       -5.556748   1.000000
   56       -5.467607   1.000000
   57       -5.315847   1.000000
   58       -5.183723   1.000000
   59       -5.170884   1.000000
   60       -5.123677   1.000000
   61       -5.065423   1.000000
   62       -5.022498   1.000000
   63       -4.950781   1.000000
   64       -4.932637   1.000000
   65       -4.867159   1.000000
   66       -4.696494   1.000000
   67       -4.618269   1.000000
   68       -4.469440   1.000000
   69       -4.342271   1.000000
   70       -4.230641   1.000000
   71       -4.140551   1.000000
   72       -4.095950   1.000000
   73       -4.047984   1.000000
   74       -4.006261   1.000000
   75       -3.988908   1.000000
   76       -3.932180   1.000000
   77       -3.923048   1.000000
   78       -3.874502   1.000000
   79       -3.873883   1.000000
   80       -3.806334   1.000000
   81       -3.741717   1.000000
   82       -3.689531   1.000000
   83       -3.678813   1.000000
   84       -3.647955   1.000000
   85       -3.628336   1.000000
   86       -3.590640   1.000000
   87       -3.549985   1.000000
   88       -3.498705   1.000000
   89       -3.446479   1.000000
   90       -3.403202   1.000000
   91       -3.355267   1.000000
   92       -3.332265   1.000000
   93       -3.265639   1.000000
   94       -3.204904   1.000000
   95       -3.161840   1.000000
   96       -2.969175   1.000000
   97       -2.846026   1.000000
   98       -2.806195   1.000000
   99       -2.770083   1.000000
  100       -2.717421   1.000000
  101       -2.594866   1.000000
  102       -2.520290   1.000000
  103       -2.416967   1.000000
  104       -2.298618   1.000000
  105       -2.281974   1.000000
  106       -2.241499   1.000000
  107       -2.119818   1.000000
  108       -2.089590   1.000000
  109       -1.960626   1.000000
  110       -1.892152   1.000000
  111       -1.861822   1.000000
  112       -1.837894   1.000000
  113       -1.718063   1.000000
  114       -1.688221   1.000000
  115       -1.628890   1.000000
  116       -1.615460   1.000000
  117       -1.533896   1.000000
  118       -1.520433   1.000000
  119       -1.394419   1.000000
  120       -1.274757   1.000000
  121       -1.187923   1.000000
  122       -1.117755   1.000000
  123       -0.946598   1.000000
  124       -0.809914   1.000000
  125       -0.798849   1.000000
  126       -0.655055   1.000000
  127       -0.569944   1.000000
  128       -0.547079   1.000000
  129       -0.327477   1.000000
  130       -0.313918   1.000000
  131       -0.131143   1.000000
  132        0.011689   1.000000
  133        0.149239   1.000049
  134        0.155922   1.000073
  135        0.192984   1.000514
  136        0.237360   1.003543
  137        0.265238   1.009318
  138        0.314971   1.029632
  139        0.424571   0.782723
  140        0.526466   0.054623
  141        0.566910  -0.030630
  142        0.586826  -0.035230
  143        0.653369  -0.009967
  144        0.719379  -0.000768
  145        0.740409  -0.000273
  146        0.854611  -0.000000
  147        0.920252  -0.000000
  148        0.927422  -0.000000
  149        0.951136  -0.000000
  150        1.047935  -0.000000
  151        1.080683  -0.000000
  152        1.116416  -0.000000
  153        1.221446  -0.000000
  154        1.279386  -0.000000
  155        1.307668  -0.000000
  156        1.347419  -0.000000
  157        1.369150  -0.000000