 running on   72 total cores
 distrk:  each k-point on   72 cores,    1 groups
 distr:  one band on    9 cores,    8 groups
 using from now: INCAR     
 vasp.5.4.4.18Apr17-6-g9f103f2a35 (build Dec  7 2020 12:43:57) complex           
 POSCAR found type information on POSCAR  Mo V  B  H 
 POSCAR found :  4 types and      76 ions
 scaLAPACK will be used
 LDA part: xc-table for Pade appr. of Perdew
 POSCAR, INCAR and KPOINTS ok, starting setup
 resort distribution
 resort distribution
 resort distribution
 resort distribution
 resort distribution
 resort distribution
 resort distribution
 resort distribution
 resort distribution
 resort distribution
 resort distribution
 resort distribution
 resort distribution
 resort distribution
 resort distribution
 resort distribution
 resort distribution
 resort distribution
 resort distribution
 resort distribution
 resort distribution
 resort distribution
 resort distribution
 resort distribution
 resort distribution
 resort distribution
 resort distribution
 resort distribution
 resort distribution
 resort distribution
 resort distribution
 resort distribution
 resort distribution
 resort distribution
 resort distribution
 resort distribution
 resort distribution
 resort distribution
 resort distribution
 resort distribution
 resort distribution
 resort distribution
 resort distribution
 resort distribution
 resort distribution
 resort distribution
 resort distribution
 resort distribution
 resort distribution
 resort distribution
 resort distribution
 resort distribution
 resort distribution
 resort distribution
 resort distribution
 resort distribution
 resort distribution
 resort distribution
 resort distribution
 resort distribution
 resort distribution
 resort distribution
 resort distribution
 resort distribution
 resort distribution
 resort distribution
 resort distribution
 resort distribution
 resort distribution
 resort distribution
 resort distribution
 resort distribution
 FFT: planning ...
 WAVECAR not read
 augmentation electrons   280.02613604713929     
 soft         electrons   0.0000000000000000     
 augmentation electrons   280.02613604713929     
 soft         electrons   0.0000000000000000     
 augmentation electrons   280.02613604713929     
 soft         electrons   0.0000000000000000     
 augmentation electrons   280.02613604713929     
 soft         electrons   0.0000000000000000     
 augmentation electrons   280.02613604713929     
 soft         electrons   0.0000000000000000     
 augmentation electrons   280.02613604713929     
 soft         electrons   0.0000000000000000     
 augmentation electrons   280.02613604713929     
 soft         electrons   0.0000000000000000     
 augmentation electrons   280.02613604713929     
 soft         electrons   0.0000000000000000     
 augmentation electrons   280.02613604713929     
 soft         electrons   0.0000000000000000     
 augmentation electrons   280.02613604713929     
 soft         electrons   0.0000000000000000     
 augmentation electrons   280.02613604713929     
 soft         electrons   0.0000000000000000     
 augmentation electrons   280.02613604713929     
 soft         electrons   0.0000000000000000     
 augmentation electrons   280.02613604713929     
 soft         electrons   0.0000000000000000     
 augmentation electrons   280.02613604713929     
 soft         electrons   0.0000000000000000     
 augmentation electrons   280.02613604713929     
 soft         electrons   0.0000000000000000     
 augmentation electrons   280.02613604713929     
 soft         electrons   0.0000000000000000     
 augmentation electrons   280.02613604713929     
 soft         electrons   0.0000000000000000     
 augmentation electrons   280.02613604713929     
 soft         electrons   0.0000000000000000     
 augmentation electrons   280.02613604713929     
 soft         electrons   0.0000000000000000     
 augmentation electrons   280.02613604713929     
 soft         electrons   0.0000000000000000     
 augmentation electrons   280.02613604713929     
 soft         electrons   0.0000000000000000     
 augmentation electrons   280.02613604713929     
 soft         electrons   0.0000000000000000     
 augmentation electrons   280.02613604713929     
 soft         electrons   0.0000000000000000     
 augmentation electrons   280.02613604713929     
 soft         electrons   0.0000000000000000     
 augmentation electrons   280.02613604713929     
 soft         electrons   0.0000000000000000     
 augmentation electrons   280.02613604713929     
 soft         electrons   0.0000000000000000     
 augmentation electrons   280.02613604713929     
 soft         electrons   0.0000000000000000     
 augmentation electrons   280.02613604713929     
 soft         electrons   0.0000000000000000     
 augmentation electrons   280.02613604713929     
 soft         electrons   0.0000000000000000     
 augmentation electrons   280.02613604713929     
 soft         electrons   0.0000000000000000     
 augmentation electrons   280.02613604713929     
 soft         electrons   0.0000000000000000     
 augmentation electrons   280.02613604713929     
 soft         electrons   0.0000000000000000     
 augmentation electrons   280.02613604713929     
 soft         electrons   0.0000000000000000     
 augmentation electrons   280.02613604713929     
 soft         electrons   0.0000000000000000     
 augmentation electrons   280.02613604713929     
 soft         electrons   0.0000000000000000     
 augmentation electrons   280.02613604713929     
 soft         electrons   0.0000000000000000     
 augmentation electrons   280.02613604713929     
 soft         electrons   0.0000000000000000     
 augmentation electrons   280.02613604713929     
 soft         electrons   0.0000000000000000     
 augmentation electrons   280.02613604713929     
 soft         electrons   0.0000000000000000     
 augmentation electrons   280.02613604713929     
 soft         electrons   0.0000000000000000     
 augmentation electrons   280.02613604713929     
 soft         electrons   0.0000000000000000     
 augmentation electrons   280.02613604713929     
 soft         electrons   0.0000000000000000     
 augmentation electrons   280.02613604713929     
 soft         electrons   0.0000000000000000     
 augmentation electrons   280.02613604713929     
 soft         electrons   0.0000000000000000     
 augmentation electrons   280.02613604713929     
 soft         electrons   0.0000000000000000     
 augmentation electrons   280.02613604713929     
 soft         electrons   0.0000000000000000     
 augmentation electrons   280.02613604713929     
 soft         electrons   0.0000000000000000     
 augmentation electrons   280.02613604713929     
 soft         electrons   0.0000000000000000     
 augmentation electrons   280.02613604713929     
 soft         electrons   0.0000000000000000     
 augmentation electrons   280.02613604713929     
 soft         electrons   0.0000000000000000     
 augmentation electrons   280.02613604713929     
 soft         electrons   0.0000000000000000     
 augmentation electrons   280.02613604713929     
 soft         electrons   0.0000000000000000     
 augmentation electrons   280.02613604713929     
 soft         electrons   0.0000000000000000     
 augmentation electrons   280.02613604713929     
 soft         electrons   0.0000000000000000     
 augmentation electrons   280.02613604713929     
 soft         electrons   0.0000000000000000     
 augmentation electrons   280.02613604713929     
 soft         electrons   0.0000000000000000     
 augmentation electrons   280.02613604713929     
 soft         electrons   0.0000000000000000     
 augmentation electrons   280.02613604713929     
 soft         electrons   0.0000000000000000     
 augmentation electrons   280.02613604713929     
 soft         electrons   0.0000000000000000     
 augmentation electrons   280.02613604713929     
 soft         electrons   0.0000000000000000     
 augmentation electrons   280.02613604713929     
 soft         electrons   0.0000000000000000     
 augmentation electrons   280.02613604713929     
 soft         electrons   0.0000000000000000     
 augmentation electrons   280.02613604713929     
 soft         electrons   0.0000000000000000     
 augmentation electrons   280.02613604713929     
 soft         electrons   0.0000000000000000     
 augmentation electrons   280.02613604713929     
 soft         electrons   0.0000000000000000     
 augmentation electrons   280.02613604713929     
 soft         electrons   0.0000000000000000     
 augmentation electrons   280.02613604713929     
 soft         electrons   0.0000000000000000     
 augmentation electrons   280.02613604713929     
 soft         electrons   0.0000000000000000     
 augmentation electrons   280.02613604713929     
 soft         electrons   0.0000000000000000     
 augmentation electrons   280.02613604713929     
 soft         electrons   0.0000000000000000     
 augmentation electrons   280.02613604713929     
 soft         electrons   0.0000000000000000     
 augmentation electrons   280.02613604713929     
 soft         electrons   0.0000000000000000     
 total        electrons   280.02613604713929     
 total        electrons   280.02613604713929     
 total        electrons   280.02613604713929     
 total        electrons   280.02613604713929     
 total        electrons   280.02613604713929     
 total        electrons   280.02613604713929     
 total        electrons   280.02613604713929     
 total        electrons   280.02613604713929     
 total        electrons   280.02613604713929     
 total        electrons   280.02613604713929     
 total        electrons   280.02613604713929     
 total        electrons   280.02613604713929     
 total        electrons   280.02613604713929     
 total        electrons   280.02613604713929     
 total        electrons   280.02613604713929     
 total        electrons   280.02613604713929     
 total        electrons   280.02613604713929     
 total        electrons   280.02613604713929     
 total        electrons   280.02613604713929     
 total        electrons   280.02613604713929     
 total        electrons   280.02613604713929     
 total        electrons   280.02613604713929     
 total        electrons   280.02613604713929     
 total        electrons   280.02613604713929     
 total        electrons   280.02613604713929     
 total        electrons   280.02613604713929     
 total        electrons   280.02613604713929     
 total        electrons   280.02613604713929     
 total        electrons   280.02613604713929     
 total        electrons   280.02613604713929     
 total        electrons   280.02613604713929     
 total        electrons   280.02613604713929     
 total        electrons   280.02613604713929     
 total        electrons   280.02613604713929     
 total        electrons   280.02613604713929     
 total        electrons   280.02613604713929     
 total        electrons   280.02613604713929     
 total        electrons   280.02613604713929     
 total        electrons   280.02613604713929     
 total        electrons   280.02613604713929     
 total        electrons   280.02613604713929     
 total        electrons   280.02613604713929     
 total        electrons   280.02613604713929     
 total        electrons   280.02613604713929     
 total        electrons   280.02613604713929     
 total        electrons   280.02613604713929     
 total        electrons   280.02613604713929     
 total        electrons   280.02613604713929     
 total        electrons   280.02613604713929     
 total        electrons   280.02613604713929     
 total        electrons   280.02613604713929     
 total        electrons   280.02613604713929     
 total        electrons   280.02613604713929     
 total        electrons   280.02613604713929     
 total        electrons   280.02613604713929     
 total        electrons   280.02613604713929     
 total        electrons   280.02613604713929     
 total        electrons   280.02613604713929     
 total        electrons   280.02613604713929     
 total        electrons   280.02613604713929     
 total        electrons   280.02613604713929     
 total        electrons   280.02613604713929     
 total        electrons   280.02613604713929     
 total        electrons   280.02613604713929     
 total        electrons   280.02613604713929     
 total        electrons   280.02613604713929     
 total        electrons   280.02613604713929     
 total        electrons   280.02613604713929     
 total        electrons   280.02613604713929     
 total        electrons   280.02613604713929     
 total        electrons   280.02613604713929     
 total        electrons   280.02613604713929     
 augmentation electrons   864.17172981569820     
 soft         electrons   0.0000000000000000     
 total        electrons   864.17172981569820     
 augmentation electrons   864.17172981569820     
 soft         electrons   0.0000000000000000     
 total        electrons   864.17172981569820     
 augmentation electrons   864.17172981569820     
 soft         electrons   0.0000000000000000     
 total        electrons   864.17172981569820     
 augmentation electrons   864.17172981569820     
 soft         electrons   0.0000000000000000     
 total        electrons   864.17172981569820     
 augmentation electrons   864.17172981569820     
 soft         electrons   0.0000000000000000     
 total        electrons   864.17172981569820     
 augmentation electrons   864.17172981569820     
 soft         electrons   0.0000000000000000     
 total        electrons   864.17172981569820     
 augmentation electrons   864.17172981569820     
 soft         electrons   0.0000000000000000     
 total        electrons   864.17172981569820     
 augmentation electrons   864.17172981569820     
 soft         electrons   0.0000000000000000     
 total        electrons   864.17172981569820     
 augmentation electrons   864.17172981569820     
 soft         electrons   0.0000000000000000     
 total        electrons   864.17172981569820     
 augmentation electrons   864.17172981569820     
 soft         electrons   0.0000000000000000     
 total        electrons   864.17172981569820     
 augmentation electrons   864.17172981569820     
 soft         electrons   0.0000000000000000     
 total        electrons   864.17172981569820     
 augmentation electrons   864.17172981569820     
 soft         electrons   0.0000000000000000     
 total        electrons   864.17172981569820     
 augmentation electrons   864.17172981569820     
 soft         electrons   0.0000000000000000     
 total        electrons   864.17172981569820     
 augmentation electrons   864.17172981569820     
 soft         electrons   0.0000000000000000     
 total        electrons   864.17172981569820     
 augmentation electrons   864.17172981569820     
 soft         electrons   0.0000000000000000     
 total        electrons   864.17172981569820     
 augmentation electrons   864.17172981569820     
 soft         electrons   0.0000000000000000     
 total        electrons   864.17172981569820     
 augmentation electrons   864.17172981569820     
 soft         electrons   0.0000000000000000     
 total        electrons   864.17172981569820     
 augmentation electrons   864.17172981569820     
 soft         electrons   0.0000000000000000     
 total        electrons   864.17172981569820     
 augmentation electrons   864.17172981569820     
 soft         electrons   0.0000000000000000     
 total        electrons   864.17172981569820     
 augmentation electrons   864.17172981569820     
 soft         electrons   0.0000000000000000     
 total        electrons   864.17172981569820     
 augmentation electrons   864.17172981569820     
 soft         electrons   0.0000000000000000     
 total        electrons   864.17172981569820     
 augmentation electrons   864.17172981569820     
 soft         electrons   0.0000000000000000     
 total        electrons   864.17172981569820     
 augmentation electrons   864.17172981569820     
 soft         electrons   0.0000000000000000     
 total        electrons   864.17172981569820     
 augmentation electrons   864.17172981569820     
 soft         electrons   0.0000000000000000     
 total        electrons   864.17172981569820     
 augmentation electrons   864.17172981569820     
 soft         electrons   0.0000000000000000     
 total        electrons   864.17172981569820     
 augmentation electrons   864.17172981569820     
 soft         electrons   0.0000000000000000     
 total        electrons   864.17172981569820     
 augmentation electrons   864.17172981569820     
 soft         electrons   0.0000000000000000     
 total        electrons   864.17172981569820     
 augmentation electrons   864.17172981569820     
 soft         electrons   0.0000000000000000     
 total        electrons   864.17172981569820     
 augmentation electrons   864.17172981569820     
 soft         electrons   0.0000000000000000     
 total        electrons   864.17172981569820     
 augmentation electrons   864.17172981569820     
 soft         electrons   0.0000000000000000     
 total        electrons   864.17172981569820     
 augmentation electrons   864.17172981569820     
 soft         electrons   0.0000000000000000     
 total        electrons   864.17172981569820     
 augmentation electrons   864.17172981569820     
 soft         electrons   0.0000000000000000     
 total        electrons   864.17172981569820     
 augmentation electrons   864.17172981569820     
 soft         electrons   0.0000000000000000     
 total        electrons   864.17172981569820     
 augmentation electrons   864.17172981569820     
 soft         electrons   0.0000000000000000     
 total        electrons   864.17172981569820     
 augmentation electrons   864.17172981569820     
 soft         electrons   0.0000000000000000     
 total        electrons   864.17172981569820     
 augmentation electrons   864.17172981569820     
 soft         electrons   0.0000000000000000     
 total        electrons   864.17172981569820     
 augmentation electrons   864.17172981569820     
 soft         electrons   0.0000000000000000     
 total        electrons   864.17172981569820     
 augmentation electrons   864.17172981569820     
 soft         electrons   0.0000000000000000     
 total        electrons   864.17172981569820     
 augmentation electrons   864.17172981569820     
 soft         electrons   0.0000000000000000     
 total        electrons   864.17172981569820     
 augmentation electrons   864.17172981569820     
 soft         electrons   0.0000000000000000     
 total        electrons   864.17172981569820     
 augmentation electrons   864.17172981569820     
 soft         electrons   0.0000000000000000     
 total        electrons   864.17172981569820     
 augmentation electrons   864.17172981569820     
 soft         electrons   0.0000000000000000     
 total        electrons   864.17172981569820     
 augmentation electrons   864.17172981569820     
 soft         electrons   0.0000000000000000     
 total        electrons   864.17172981569820     
 augmentation electrons   864.17172981569820     
 soft         electrons   0.0000000000000000     
 total        electrons   864.17172981569820     
 augmentation electrons   864.17172981569820     
 soft         electrons   0.0000000000000000     
 total        electrons   864.17172981569820     
 augmentation electrons   864.17172981569820     
 soft         electrons   0.0000000000000000     
 total        electrons   864.17172981569820     
 augmentation electrons   864.17172981569820     
 soft         electrons   0.0000000000000000     
 total        electrons   864.17172981569820     
 augmentation electrons   864.17172981569820     
 soft         electrons   0.0000000000000000     
 total        electrons   864.17172981569820     
 augmentation electrons   864.17172981569820     
 soft         electrons   0.0000000000000000     
 total        electrons   864.17172981569820     
 augmentation electrons   864.17172981569820     
 soft         electrons   0.0000000000000000     
 total        electrons   864.17172981569820     
 augmentation electrons   864.17172981569820     
 soft         electrons   0.0000000000000000     
 total        electrons   864.17172981569820     
 augmentation electrons   864.17172981569820     
 soft         electrons   0.0000000000000000     
 total        electrons   864.17172981569820     
 augmentation electrons   864.17172981569820     
 soft         electrons   0.0000000000000000     
 total        electrons   864.17172981569820     
 augmentation electrons   864.17172981569820     
 soft         electrons   0.0000000000000000     
 total        electrons   864.17172981569820     
 augmentation electrons   864.17172981569820     
 soft         electrons   0.0000000000000000     
 total        electrons   864.17172981569820     
 augmentation electrons   864.17172981569820     
 soft         electrons   0.0000000000000000     
 total        electrons   864.17172981569820     
 augmentation electrons   864.17172981569820     
 soft         electrons   0.0000000000000000     
 total        electrons   864.17172981569820     
 augmentation electrons   864.17172981569820     
 soft         electrons   0.0000000000000000     
 total        electrons   864.17172981569820     
 augmentation electrons   864.17172981569820     
 soft         electrons   0.0000000000000000     
 total        electrons   864.17172981569820     
 augmentation electrons   864.17172981569820     
 soft         electrons   0.0000000000000000     
 total        electrons   864.17172981569820     
 augmentation electrons   864.17172981569820     
 soft         electrons   0.0000000000000000     
 total        electrons   864.17172981569820     
 augmentation electrons   864.17172981569820     
 soft         electrons   0.0000000000000000     
 total        electrons   864.17172981569820     
 augmentation electrons   864.17172981569820     
 soft         electrons   0.0000000000000000     
 total        electrons   864.17172981569820     
 augmentation electrons   864.17172981569820     
 soft         electrons   0.0000000000000000     
 total        electrons   864.17172981569820     
 augmentation electrons   864.17172981569820     
 soft         electrons   0.0000000000000000     
 total        electrons   864.17172981569820     
 augmentation electrons   864.17172981569820     
 soft         electrons   0.0000000000000000     
 total        electrons   864.17172981569820     
 augmentation electrons   864.17172981569820     
 soft         electrons   0.0000000000000000     
 total        electrons   864.17172981569820     
 augmentation electrons   864.17172981569820     
 soft         electrons   0.0000000000000000     
 total        electrons   864.17172981569820     
 augmentation electrons   864.17172981569820     
 soft         electrons   0.0000000000000000     
 total        electrons   864.17172981569820     
 augmentation electrons   864.17172981569820     
 soft         electrons   0.0000000000000000     
 total        electrons   864.17172981569820     
 augmentation electrons   864.17172981569820     
 soft         electrons   0.0000000000000000     
 total        electrons   864.17172981569820     
 augmentation electrons   864.17172981569820     
 soft         electrons   0.0000000000000000     
 total        electrons   864.17172981569820     
 entering main loop
       N       E                     dE             d eps       ncg     rms          rms(c)
DAV:   1     0.306560497033E+04    0.30656E+04   -0.95658E+04  8464   0.128E+03
DAV:   2     0.580188740575E+02   -0.30076E+04   -0.27706E+04  9032   0.334E+02
DAV:   3    -0.641021833686E+03   -0.69904E+03   -0.67073E+03 11584   0.195E+02
DAV:   4    -0.710689806131E+03   -0.69668E+02   -0.65874E+02 13936   0.674E+01
DAV:   5    -0.714855949017E+03   -0.41661E+01   -0.39349E+01 14176   0.170E+01    0.143E+02
RMM:   6    -0.658761722983E+03    0.56094E+02   -0.14069E+03  9701   0.112E+02    0.778E+01
RMM:   7    -0.720690564728E+03   -0.61929E+02   -0.67771E+02 10127   0.907E+01    0.541E+01
RMM:   8    -0.649578357749E+03    0.71112E+02   -0.13420E+02  9618   0.391E+01    0.396E+01
RMM:   9    -0.611659525995E+03    0.37919E+02   -0.49610E+01  8649   0.263E+01    0.288E+01
RMM:  10    -0.596188280657E+03    0.15471E+02   -0.29640E+01  9371   0.161E+01    0.212E+01
RMM:  11    -0.593326472856E+03    0.28618E+01   -0.12568E+01 10346   0.878E+00    0.168E+01
RMM:  12    -0.593311698347E+03    0.14775E-01   -0.27865E+00 10753   0.298E+00    0.155E+01
RMM:  13    -0.593707073044E+03   -0.39537E+00   -0.70087E-01 10591   0.204E+00    0.146E+01
RMM:  14    -0.592212159912E+03    0.14949E+01   -0.36849E+00  9142   0.613E+00    0.933E+00
RMM:  15    -0.592557457325E+03   -0.34530E+00   -0.59726E+00  8847   0.695E+00    0.891E+00
RMM:  16    -0.591744476600E+03    0.81298E+00   -0.14086E+00  9332   0.360E+00    0.313E+00
RMM:  17    -0.591748226103E+03   -0.37495E-02   -0.59846E-01 10910   0.127E+00    0.251E+00
RMM:  18    -0.591751226310E+03   -0.30002E-02   -0.16031E-01  9944   0.110E+00    0.251E+00
RMM:  19    -0.591721591516E+03    0.29635E-01   -0.17579E-01  9890   0.124E+00    0.160E+00
RMM:  20    -0.591711592743E+03    0.99988E-02   -0.11048E-01  8854   0.960E-01    0.124E+00
RMM:  21    -0.591703999473E+03    0.75933E-02   -0.69009E-02 10497   0.570E-01    0.817E-01
RMM:  22    -0.591705979939E+03   -0.19805E-02   -0.33759E-02  9852   0.460E-01    0.105E+00
RMM:  23    -0.591698554577E+03    0.74254E-02   -0.13289E-02  8721   0.353E-01    0.810E-01
RMM:  24    -0.591694318504E+03    0.42361E-02   -0.11884E-02  9240   0.322E-01    0.289E-01
RMM:  25    -0.591695765918E+03   -0.14474E-02   -0.11856E-02 11436   0.185E-01    0.210E-01
RMM:  26    -0.591696410087E+03   -0.64417E-03   -0.26089E-03 10474   0.118E-01    0.211E-01
RMM:  27    -0.591696986972E+03   -0.57688E-03   -0.95729E-04  9502   0.851E-02    0.158E-01
RMM:  28    -0.591698049309E+03   -0.10623E-02   -0.19320E-03 10455   0.107E-01    0.915E-02
RMM:  29    -0.591698749990E+03   -0.70068E-03   -0.64063E-04  9260   0.666E-02    0.728E-02
RMM:  30    -0.591699179419E+03   -0.42943E-03   -0.32333E-04 10043   0.428E-02    0.639E-02
RMM:  31    -0.591699793784E+03   -0.61436E-03   -0.21491E-04  8853   0.440E-02    0.381E-02
RMM:  32    -0.591700048127E+03   -0.25434E-03   -0.15945E-04 10400   0.262E-02    0.342E-02
RMM:  33    -0.591700106678E+03   -0.58551E-04   -0.59592E-05  9326   0.185E-02    0.237E-02
RMM:  34    -0.591700233184E+03   -0.12651E-03   -0.42102E-05  9333   0.142E-02    0.197E-02
RMM:  35    -0.591700352072E+03   -0.11889E-03   -0.26430E-05  8710   0.107E-02    0.128E-02
RMM:  36    -0.591700398039E+03   -0.45966E-04   -0.19120E-05  8018   0.113E-02    0.144E-02
RMM:  37    -0.591700462670E+03   -0.64632E-04   -0.13892E-05  7741   0.782E-03    0.143E-02
RMM:  38    -0.591700582309E+03   -0.11964E-03   -0.31677E-05  7791   0.185E-02    0.192E-02
RMM:  39    -0.591700681282E+03   -0.98973E-04   -0.83694E-06  6534   0.957E-03    0.477E-03
RMM:  40    -0.591700789889E+03   -0.10861E-03   -0.11900E-05  6835   0.530E-03    0.925E-03
RMM:  41    -0.591700836211E+03   -0.46323E-04   -0.63500E-06  6390   0.789E-03    0.305E-03
RMM:  42    -0.591700863801E+03   -0.27589E-04   -0.33991E-06  5817   0.266E-03    0.274E-03
RMM:  43    -0.591700877612E+03   -0.13811E-04   -0.11791E-06  5238   0.261E-03    0.204E-03
RMM:  44    -0.591700886412E+03   -0.88008E-05   -0.83635E-07  5092   0.257E-03    0.125E-03
RMM:  45    -0.591700891933E+03   -0.55206E-05   -0.62201E-07  4617   0.178E-03    0.795E-04
RMM:  46    -0.591700893323E+03   -0.13895E-05   -0.27856E-07  4051   0.127E-03    0.345E-04
RMM:  47    -0.591700893905E+03   -0.58282E-06   -0.16360E-07  4044   0.114E-03
   1 F= -.59170089E+03 E0= -.59170515E+03  d E =-.591701E+03
 curvature:   0.00 expect dE= 0.000E+00 dE for cont linesearch  0.000E+00
 trial: gam= 0.00000 g(F)=  0.148E+00 g(S)=  0.000E+00 ort = 0.000E+00 (trialstep = 0.100E+01)
 search vector abs. value=  0.148E+00
 bond charge predicted
       N       E                     dE             d eps       ncg     rms          rms(c)
DAV:   1    -0.591836446155E+03   -0.13555E+00   -0.23511E+00  9456   0.304E+00    0.441E-01
RMM:   2    -0.591838414178E+03   -0.19680E-02   -0.50551E-02  8856   0.769E-01    0.330E-01
RMM:   3    -0.591846038424E+03   -0.76242E-02   -0.21261E-02 10577   0.404E-01    0.778E-01
RMM:   4    -0.591841283392E+03    0.47550E-02   -0.78549E-03  9643   0.279E-01    0.503E-01
RMM:   5    -0.591838384693E+03    0.28987E-02   -0.51306E-03  9151   0.224E-01    0.232E-01
RMM:   6    -0.591838298923E+03    0.85770E-04   -0.28804E-03  9766   0.151E-01    0.201E-01
RMM:   7    -0.591837929431E+03    0.36949E-03   -0.12000E-03  8710   0.115E-01    0.112E-01
RMM:   8    -0.591837769641E+03    0.15979E-03   -0.43182E-04 10002   0.567E-02    0.453E-02
RMM:   9    -0.591837775584E+03   -0.59437E-05   -0.20851E-04  9701   0.380E-02    0.462E-02
RMM:  10    -0.591837754492E+03    0.21092E-04   -0.71207E-05  9099   0.240E-02    0.185E-02
RMM:  11    -0.591837756255E+03   -0.17632E-05   -0.39714E-05  8563   0.127E-02    0.194E-02
RMM:  12    -0.591837756489E+03   -0.23401E-06   -0.17546E-05  7032   0.127E-02    0.181E-02
RMM:  13    -0.591837755395E+03    0.10942E-05   -0.11085E-05  6724   0.991E-03    0.112E-02
RMM:  14    -0.591837754894E+03    0.50107E-06   -0.55756E-06  6271   0.776E-03
   2 F= -.59183775E+03 E0= -.59184206E+03  d E =-.136861E+00
 trial-energy change:   -0.136861  1 .order   -0.135693   -0.147758   -0.123629
 step:   3.5302(harm=  6.1236)  dis= 0.01328  next Energy=  -592.013074 (dE=-0.312E+00)
 bond charge predicted
       N       E                     dE             d eps       ncg     rms          rms(c)
DAV:   1    -0.592007044227E+03   -0.16929E+00   -0.15743E+01  8704   0.781E+00    0.136E+00
RMM:   2    -0.592007572783E+03   -0.52856E-03   -0.36151E-01  8880   0.200E+00    0.100E+00
RMM:   3    -0.592064413728E+03   -0.56841E-01   -0.17562E-01 10360   0.123E+00    0.221E+00
RMM:   4    -0.592030817816E+03    0.33596E-01   -0.75908E-02  9446   0.899E-01    0.145E+00
RMM:   5    -0.592004327008E+03    0.26491E-01   -0.38225E-02  9682   0.563E-01    0.657E-01
RMM:   6    -0.592004354379E+03   -0.27371E-04   -0.23635E-02  9158   0.456E-01    0.640E-01
RMM:   7    -0.591999856095E+03    0.44983E-02   -0.96776E-03  9036   0.336E-01    0.279E-01
RMM:   8    -0.591999151211E+03    0.70488E-03   -0.39027E-03  9920   0.177E-01    0.167E-01
RMM:   9    -0.591999014360E+03    0.13685E-03   -0.15675E-03  9436   0.117E-01    0.127E-01
RMM:  10    -0.591998906997E+03    0.10736E-03   -0.63934E-04  9190   0.734E-02    0.843E-02
RMM:  11    -0.591998872584E+03    0.34412E-04   -0.35041E-04  9514   0.485E-02    0.588E-02
RMM:  12    -0.591998869447E+03    0.31371E-05   -0.18340E-04  9280   0.366E-02    0.479E-02
RMM:  13    -0.591998855250E+03    0.14197E-04   -0.93914E-05  9043   0.286E-02    0.246E-02
RMM:  14    -0.591998856430E+03   -0.11794E-05   -0.54475E-05  9394   0.144E-02    0.144E-02
RMM:  15    -0.591998860955E+03   -0.45256E-05   -0.21103E-05  7841   0.116E-02    0.129E-02
RMM:  16    -0.591998866591E+03   -0.56354E-05   -0.70702E-06  6550   0.734E-03    0.425E-03
RMM:  17    -0.591998873522E+03   -0.69308E-05   -0.36353E-06  6033   0.427E-03    0.373E-03
RMM:  18    -0.591998880891E+03   -0.73690E-05   -0.18886E-06  5578   0.505E-03    0.475E-03
RMM:  19    -0.591998889580E+03   -0.86895E-05   -0.12206E-06  5301   0.380E-03    0.170E-03
RMM:  20    -0.591998901076E+03   -0.11496E-04   -0.12567E-06  5411   0.246E-03    0.157E-03
RMM:  21    -0.591998905702E+03   -0.46261E-05   -0.53335E-07  5042   0.216E-03    0.124E-03
RMM:  22    -0.591998911518E+03   -0.58155E-05   -0.63615E-07  5123   0.212E-03    0.193E-03
RMM:  23    -0.591998917937E+03   -0.64199E-05   -0.78811E-07  5188   0.213E-03    0.719E-04
RMM:  24    -0.591998921253E+03   -0.33155E-05   -0.46680E-07  4666   0.152E-03    0.599E-04
RMM:  25    -0.591998923452E+03   -0.21990E-05   -0.29190E-07  4311   0.133E-03    0.436E-04
RMM:  26    -0.591998924854E+03   -0.14024E-05   -0.19339E-07  4147   0.114E-03    0.545E-04
RMM:  27    -0.591998926720E+03   -0.18658E-05   -0.18304E-07  3973   0.102E-03    0.266E-04
RMM:  28    -0.591998927994E+03   -0.12736E-05   -0.13036E-07  3320   0.883E-04    0.189E-04
RMM:  29    -0.591998928868E+03   -0.87462E-06   -0.99906E-08  2994   0.784E-04
   3 F= -.59199893E+03 E0= -.59200339E+03  d E =-.298035E+00
 curvature:  -2.28 expect dE=-0.891E-01 dE for cont linesearch -0.604E-02
 ZBRENT: interpolating
 opt :   3.1810  next Energy=  -592.002387 (dE=-0.301E+00)
 bond charge predicted
       N       E                     dE             d eps       ncg     rms          rms(c)
DAV:   1    -0.592000995821E+03   -0.20678E-02   -0.31608E-01  8888   0.110E+00    0.207E-01
RMM:   2    -0.592000919079E+03    0.76742E-04   -0.79888E-03  9074   0.300E-01    0.153E-01
RMM:   3    -0.592002094777E+03   -0.11757E-02   -0.43275E-03 10180   0.196E-01    0.333E-01
RMM:   4    -0.592001146572E+03    0.94820E-03   -0.18561E-03  9297   0.144E-01    0.172E-01
RMM:   5    -0.592000907516E+03    0.23906E-03   -0.83393E-04 10253   0.726E-02    0.124E-01
RMM:   6    -0.592000838621E+03    0.68895E-04   -0.54894E-04  8981   0.707E-02    0.101E-01
RMM:   7    -0.592000723378E+03    0.11524E-03   -0.24247E-04  9329   0.523E-02    0.417E-02
RMM:   8    -0.592000707857E+03    0.15521E-04   -0.96845E-05  9938   0.276E-02    0.256E-02
RMM:   9    -0.592000704444E+03    0.34129E-05   -0.36542E-05  9037   0.180E-02    0.188E-02
RMM:  10    -0.592000702070E+03    0.23742E-05   -0.14035E-05  7357   0.118E-02    0.132E-02
RMM:  11    -0.592000701320E+03    0.74965E-06   -0.74270E-06  6455   0.865E-03
   4 F= -.59200070E+03 E0= -.59200514E+03  d E =-.299807E+00
 curvature:  -1.30 expect dE=-0.348E-01 dE for cont linesearch -0.717E-03
 ZBRENT: interpolating
 opt :   3.2902  next Energy=  -592.001194 (dE=-0.300E+00)
 bond charge predicted
       N       E                     dE             d eps       ncg     rms          rms(c)
DAV:   1    -0.592001245721E+03   -0.54365E-03   -0.30905E-02  8856   0.346E-01    0.645E-02
RMM:   2    -0.592001249209E+03   -0.34882E-05   -0.82003E-04  9401   0.959E-02    0.534E-02
RMM:   3    -0.592001342399E+03   -0.93190E-04   -0.39748E-04  9935   0.631E-02    0.101E-01
RMM:   4    -0.592001266449E+03    0.75949E-04   -0.17001E-04  9696   0.425E-02    0.545E-02
RMM:   5    -0.592001247509E+03    0.18941E-04   -0.64042E-05  9367   0.245E-02    0.412E-02
RMM:   6    -0.592001239546E+03    0.79629E-05   -0.58303E-05  9045   0.229E-02    0.362E-02
RMM:   7    -0.592001225709E+03    0.13837E-04   -0.23283E-05  8208   0.170E-02    0.116E-02
RMM:   8    -0.592001224874E+03    0.83517E-06   -0.77091E-06  7181   0.823E-03
   5 F= -.59200122E+03 E0= -.59200567E+03  d E =-.300331E+00
 curvature:  -0.90 expect dE=-0.260E-01 dE for cont linesearch -0.700E-06
 trial: gam= 0.19445 g(F)=  0.291E-01 g(S)=  0.000E+00 ort = 0.340E-03 (trialstep = 0.146E+01)
 search vector abs. value=  0.348E-01
 bond charge predicted
       N       E                     dE             d eps       ncg     rms          rms(c)
DAV:   1    -0.592036863491E+03   -0.35638E-01   -0.11815E+00  8496   0.217E+00    0.405E-01
RMM:   2    -0.592040865778E+03   -0.40023E-02   -0.24626E-02  9187   0.551E-01    0.539E-01
RMM:   3    -0.592040632861E+03    0.23292E-03   -0.82785E-03  9943   0.306E-01    0.472E-01
RMM:   4    -0.592043685598E+03   -0.30527E-02   -0.94103E-03  9639   0.255E-01    0.669E-01
RMM:   5    -0.592038463341E+03    0.52223E-02   -0.57044E-03  8672   0.260E-01    0.172E-01
RMM:   6    -0.592038453655E+03    0.96870E-05   -0.22489E-03  9478   0.140E-01    0.166E-01
RMM:   7    -0.592038198993E+03    0.25466E-03   -0.87917E-04  8885   0.954E-02    0.742E-02
RMM:   8    -0.592038140765E+03    0.58229E-04   -0.28706E-04  9538   0.386E-02    0.387E-02
RMM:   9    -0.592038127999E+03    0.12765E-04   -0.75769E-05  9206   0.214E-02    0.210E-02
RMM:  10    -0.592038125051E+03    0.29479E-05   -0.31512E-05  9075   0.113E-02    0.132E-02
RMM:  11    -0.592038125797E+03   -0.74556E-06   -0.14812E-05  7455   0.108E-02    0.153E-02
RMM:  12    -0.592038123845E+03    0.19525E-05   -0.59643E-06  6407   0.753E-03    0.683E-03
RMM:  13    -0.592038124341E+03   -0.49624E-06   -0.33508E-06  5891   0.571E-03
   6 F= -.59203812E+03 E0= -.59204260E+03  d E =-.368995E-01
 trial-energy change:   -0.036899  1 .order   -0.036961   -0.042484   -0.031439
 step:   5.6083(harm=  5.6083)  dis= 0.10081  next Energy=  -592.082930 (dE=-0.817E-01)
 bond charge predicted
       N       E                     dE             d eps       ncg     rms          rms(c)
DAV:   1    -0.592076698757E+03   -0.38575E-01   -0.93225E+00  8472   0.611E+00    0.105E+00
RMM:   2    -0.592106267955E+03   -0.29569E-01   -0.18772E-01  9032   0.155E+00    0.144E+00
RMM:   3    -0.592103914597E+03    0.23534E-02   -0.58614E-02  9970   0.817E-01    0.121E+00
RMM:   4    -0.592124594272E+03   -0.20680E-01   -0.61223E-02  9618   0.649E-01    0.172E+00
RMM:   5    -0.592089304288E+03    0.35290E-01   -0.35729E-02  8675   0.651E-01    0.433E-01
RMM:   6    -0.592090933338E+03   -0.16291E-02   -0.17914E-02  9302   0.400E-01    0.519E-01
RMM:   7    -0.592088082006E+03    0.28513E-02   -0.62687E-03  8777   0.265E-01    0.183E-01
RMM:   8    -0.592087807553E+03    0.27445E-03   -0.24502E-03  9535   0.109E-01    0.116E-01
RMM:   9    -0.592087676114E+03    0.13144E-03   -0.56039E-04  9684   0.587E-02    0.525E-02
RMM:  10    -0.592087663491E+03    0.12623E-04   -0.25337E-04 10946   0.300E-02    0.327E-02
RMM:  11    -0.592087669007E+03   -0.55153E-05   -0.10923E-04  9757   0.255E-02    0.369E-02
RMM:  12    -0.592087663306E+03    0.57009E-05   -0.42959E-05  8975   0.178E-02    0.246E-02
RMM:  13    -0.592087663309E+03   -0.29031E-08   -0.21489E-05  7791   0.143E-02    0.169E-02
RMM:  14    -0.592087664803E+03   -0.14948E-05   -0.12849E-05  6821   0.884E-03    0.871E-03
RMM:  15    -0.592087667924E+03   -0.31211E-05   -0.66903E-06  6529   0.806E-03    0.848E-03
RMM:  16    -0.592087672253E+03   -0.43290E-05   -0.27975E-06  5735   0.588E-03    0.333E-03
RMM:  17    -0.592087675274E+03   -0.30205E-05   -0.13123E-06  5415   0.343E-03    0.232E-03
RMM:  18    -0.592087677641E+03   -0.23673E-05   -0.70315E-07  5174   0.299E-03    0.243E-03
RMM:  19    -0.592087680771E+03   -0.31299E-05   -0.48799E-07  5142   0.255E-03    0.137E-03
RMM:  20    -0.592087686999E+03   -0.62280E-05   -0.68686E-07  5183   0.184E-03    0.124E-03
RMM:  21    -0.592087691214E+03   -0.42149E-05   -0.54759E-07  5104   0.198E-03    0.142E-03
RMM:  22    -0.592087693794E+03   -0.25795E-05   -0.39266E-07  4886   0.174E-03    0.997E-04
RMM:  23    -0.592087695620E+03   -0.18267E-05   -0.27572E-07  4398   0.141E-03    0.690E-04
RMM:  24    -0.592087697579E+03   -0.19586E-05   -0.23563E-07  4118   0.112E-03    0.579E-04
RMM:  25    -0.592087698908E+03   -0.13291E-05   -0.18548E-07  4151   0.114E-03    0.558E-04
RMM:  26    -0.592087700753E+03   -0.18451E-05   -0.23650E-07  4179   0.977E-04    0.317E-04
RMM:  27    -0.592087701380E+03   -0.62687E-06   -0.12625E-07  3678   0.973E-04
   7 F= -.59208770E+03 E0= -.59209227E+03  d E =-.864765E-01
 curvature:  -3.35 expect dE=-0.389E-02 dE for cont linesearch -0.793E-03
 ZBRENT: extrapolating
 opt :   6.2458  next Energy=  -592.088616 (dE=-0.874E-01)
 bond charge predicted
       N       E                     dE             d eps       ncg     rms          rms(c)
DAV:   1    -0.592088433043E+03   -0.73229E-03   -0.22348E-01  8920   0.944E-01    0.149E-01
RMM:   2    -0.592089044480E+03   -0.61144E-03   -0.40142E-03  8931   0.228E-01    0.203E-01
RMM:   3    -0.592089025157E+03    0.19323E-04   -0.12525E-03  9945   0.120E-01    0.175E-01
RMM:   4    -0.592089446442E+03   -0.42128E-03   -0.12463E-03  9598   0.923E-02    0.246E-01
RMM:   5    -0.592088713186E+03    0.73326E-03   -0.70495E-04  8659   0.917E-02    0.595E-02
RMM:   6    -0.592088761212E+03   -0.48026E-04   -0.37051E-04  9233   0.576E-02    0.770E-02
RMM:   7    -0.592088693715E+03    0.67497E-04   -0.11910E-04  8665   0.373E-02    0.228E-02
RMM:   8    -0.592088691269E+03    0.24457E-05   -0.51847E-05  8829   0.153E-02    0.159E-02
RMM:   9    -0.592088688779E+03    0.24905E-05   -0.10415E-05  6836   0.812E-03    0.756E-03
RMM:  10    -0.592088688684E+03    0.95251E-07   -0.40762E-06  6065   0.554E-03
   8 F= -.59208869E+03 E0= -.59209327E+03  d E =-.874638E-01
 curvature:  -3.86 expect dE=-0.492E-02 dE for cont linesearch -0.478E-05
 trial: gam= 0.06527 g(F)=  0.127E-02 g(S)=  0.000E+00 ort = 0.207E-03 (trialstep = 0.242E+01)
 search vector abs. value=  0.145E-02
 bond charge predicted
       N       E                     dE             d eps       ncg     rms          rms(c)
DAV:   1    -0.592089479716E+03   -0.79094E-03   -0.14520E-01  8800   0.741E-01    0.131E-01
RMM:   2    -0.592089493101E+03   -0.13386E-04   -0.31266E-03  9511   0.176E-01    0.989E-02
RMM:   3    -0.592090148318E+03   -0.65522E-03   -0.16837E-03  9950   0.126E-01    0.242E-01
RMM:   4    -0.592089745278E+03    0.40304E-03   -0.74054E-04  9681   0.852E-02    0.164E-01
RMM:   5    -0.592089440455E+03    0.30482E-03   -0.31165E-04  9021   0.591E-02    0.461E-02
RMM:   6    -0.592089452451E+03   -0.11996E-04   -0.19214E-04  9885   0.366E-02    0.544E-02
RMM:   7    -0.592089412805E+03    0.39646E-04   -0.74579E-05  8744   0.298E-02    0.182E-02
RMM:   8    -0.592089411826E+03    0.97954E-06   -0.33996E-05  9346   0.141E-02    0.135E-02
RMM:   9    -0.592089411089E+03    0.73711E-06   -0.11518E-05  7433   0.102E-02    0.101E-02
RMM:  10    -0.592089410683E+03    0.40599E-06   -0.46345E-06  6211   0.759E-03
   9 F= -.59208941E+03 E0= -.59209402E+03  d E =-.721999E-03
 trial-energy change:   -0.000722  1 .order   -0.000686   -0.003108    0.001736
 step:   1.5743(harm=  1.5498)  dis= 0.00189  next Energy=  -592.089712 (dE=-0.102E-02)
 bond charge predicted
       N       E                     dE             d eps       ncg     rms          rms(c)
DAV:   1    -0.592089720376E+03   -0.30929E-03   -0.17630E-02  8848   0.259E-01    0.457E-02
RMM:   2    -0.592089723286E+03   -0.29103E-05   -0.38273E-04  8696   0.660E-02    0.353E-02
RMM:   3    -0.592089806219E+03   -0.82933E-04   -0.19207E-04 10153   0.414E-02    0.858E-02
RMM:   4    -0.592089753417E+03    0.52802E-04   -0.93577E-05  9528   0.299E-02    0.581E-02
RMM:   5    -0.592089716881E+03    0.36537E-04   -0.47939E-05  8612   0.229E-02    0.191E-02
RMM:   6    -0.592089715814E+03    0.10670E-05   -0.21953E-05  8695   0.122E-02    0.147E-02
RMM:   7    -0.592089712945E+03    0.28685E-05   -0.85613E-06  6825   0.103E-02    0.934E-03
RMM:   8    -0.592089712154E+03    0.79117E-06   -0.36659E-06  6035   0.682E-03
  10 F= -.59208971E+03 E0= -.59209431E+03  d E =-.102347E-02
 curvature:  -0.87 expect dE=-0.564E-04 dE for cont linesearch -0.379E-08
 trial: gam= 0.06978 g(F)=  0.647E-04 g(S)=  0.000E+00 ort = 0.251E-05 (trialstep = 0.225E+01)
 search vector abs. value=  0.721E-04
 bond charge predicted
       N       E                     dE             d eps       ncg     rms          rms(c)
DAV:   1    -0.592089837835E+03   -0.12489E-03   -0.57904E-03  8896   0.152E-01    0.227E-02
RMM:   2    -0.592089855268E+03   -0.17433E-04   -0.14778E-04  8594   0.473E-02    0.323E-02
RMM:   3    -0.592089856001E+03   -0.73265E-06   -0.44758E-05  9507   0.216E-02    0.263E-02
RMM:   4    -0.592089863730E+03   -0.77292E-05   -0.25609E-05  8996   0.111E-02    0.349E-02
RMM:   5    -0.592089848880E+03    0.14850E-04   -0.15147E-05  7117   0.131E-02    0.108E-02
RMM:   6    -0.592089850044E+03   -0.11639E-05   -0.11139E-05  7154   0.952E-03    0.116E-02
RMM:   7    -0.592089849218E+03    0.82567E-06   -0.52869E-06  6183   0.868E-03
  11 F= -.59208985E+03 E0= -.59209446E+03  d E =-.137064E-03
 ZBRENT: can't locate minimum, use default step
 trial-energy change:   -0.000137  1 .order   -0.000136   -0.000146   -0.000127
 step:   8.9893(harm= 17.1580)  dis= 0.01286  next Energy=  -592.090268 (dE=-0.556E-03)
 bond charge predicted
       N       E                     dE             d eps       ncg     rms          rms(c)
DAV:   1    -0.592090049075E+03   -0.19903E-03   -0.52121E-02  8608   0.455E-01    0.664E-02
RMM:   2    -0.592090163525E+03   -0.11445E-03   -0.12042E-03  8616   0.132E-01    0.771E-02
RMM:   3    -0.592090234992E+03   -0.71468E-04   -0.37700E-04 10312   0.594E-02    0.918E-02
RMM:   4    -0.592090229727E+03    0.52654E-05   -0.20918E-04 10311   0.351E-02    0.820E-02
RMM:   5    -0.592090144978E+03    0.84749E-04   -0.15203E-04  8816   0.398E-02    0.368E-02
RMM:   6    -0.592090155768E+03   -0.10790E-04   -0.10784E-04  9216   0.282E-02    0.414E-02
RMM:   7    -0.592090138540E+03    0.17228E-04   -0.39054E-05  8222   0.212E-02    0.182E-02
RMM:   8    -0.592090134172E+03    0.43672E-05   -0.11794E-05  6968   0.101E-02    0.718E-03
RMM:   9    -0.592090133983E+03    0.18892E-06   -0.50213E-06  6170   0.600E-03
  12 F= -.59209013E+03 E0= -.59209475E+03  d E =-.421829E-03
 curvature:  -6.67 expect dE=-0.865E-03 dE for cont linesearch -0.711E-04
 ZBRENT: increasing intervall
 opt :  22.4733  next Energy=  -592.090122 (dE=-0.409E-03)
 bond charge predicted
       N       E                     dE             d eps       ncg     rms          rms(c)
DAV:   1    -0.592089835818E+03    0.29835E-03   -0.20906E-01  8520   0.909E-01    0.132E-01
RMM:   2    -0.592090295818E+03   -0.46000E-03   -0.47623E-03  9027   0.247E-01    0.158E-01
RMM:   3    -0.592090515360E+03   -0.21954E-03   -0.14303E-03 10275   0.117E-01    0.174E-01
RMM:   4    -0.592090619856E+03   -0.10450E-03   -0.99267E-04 10584   0.715E-02    0.183E-01
RMM:   5    -0.592090187634E+03    0.43222E-03   -0.64925E-04  8794   0.825E-02    0.706E-02
RMM:   6    -0.592090200093E+03   -0.12459E-04   -0.41032E-04  9711   0.523E-02    0.662E-02
RMM:   7    -0.592090165292E+03    0.34801E-04   -0.15388E-04  8684   0.395E-02    0.379E-02
RMM:   8    -0.592090145818E+03    0.19475E-04   -0.50928E-05  8711   0.198E-02    0.152E-02
RMM:   9    -0.592090144431E+03    0.13862E-05   -0.19493E-05  7679   0.103E-02    0.104E-02
RMM:  10    -0.592090143874E+03    0.55753E-06   -0.66405E-06  6594   0.742E-03
  13 F= -.59209014E+03 E0= -.59209478E+03  d E =-.431720E-03
 curvature:   1.17 expect dE= 0.884E-03 dE for cont linesearch  0.136E-04
 ZBRENT: bracketing found
 ZBRENT: interpolating
 opt :  15.5783  next Energy=  -592.090225 (dE=-0.513E-03)
 bond charge predicted
       N       E                     dE             d eps       ncg     rms          rms(c)
DAV:   1    -0.592090147346E+03   -0.29151E-05   -0.54490E-02  8528   0.465E-01    0.680E-02
RMM:   2    -0.592090264462E+03   -0.11712E-03   -0.12629E-03  8690   0.135E-01    0.782E-02
RMM:   3    -0.592090336371E+03   -0.71909E-04   -0.39071E-04 10274   0.611E-02    0.923E-02
RMM:   4    -0.592090351473E+03   -0.15103E-04   -0.22173E-04 10493   0.347E-02    0.932E-02
RMM:   5    -0.592090243584E+03    0.10789E-03   -0.15350E-04  8780   0.405E-02    0.360E-02
RMM:   6    -0.592090254485E+03   -0.10901E-04   -0.11771E-04  9541   0.282E-02    0.391E-02
RMM:   7    -0.592090238840E+03    0.15645E-04   -0.41675E-05  8247   0.220E-02    0.194E-02
RMM:   8    -0.592090233511E+03    0.53296E-05   -0.11806E-05  7078   0.102E-02    0.667E-03
RMM:   9    -0.592090233684E+03   -0.17358E-06   -0.49280E-06  6210   0.598E-03
  14 F= -.59209023E+03 E0= -.59209486E+03  d E =-.521530E-03
 curvature:  -7.82 expect dE=-0.274E-02 dE for cont linesearch -0.628E-06
 trial: gam= 5.38114 g(F)=  0.350E-03 g(S)=  0.000E+00 ort = 0.240E-05 (trialstep = 0.144E+00)
 search vector abs. value=  0.246E-02
 bond charge predicted
       N       E                     dE             d eps       ncg     rms          rms(c)
DAV:   1    -0.592090282660E+03   -0.49150E-04   -0.80469E-04  9016   0.581E-02    0.971E-03
RMM:   2    -0.592090287918E+03   -0.52580E-05   -0.28050E-05  8346   0.197E-02    0.196E-02
RMM:   3    -0.592090284357E+03    0.35609E-05   -0.76348E-06  6943   0.107E-02    0.746E-03
RMM:   4    -0.592090284796E+03   -0.43857E-06   -0.29820E-06  5868   0.648E-03    0.812E-03
RMM:   5    -0.592090285084E+03   -0.28839E-06   -0.15732E-06  5168   0.563E-03
  15 F= -.59209029E+03 E0= -.59209492E+03  d E =-.514002E-04
 ZBRENT: can't locate minimum, use default step
 trial-energy change:   -0.000051  1 .order   -0.000051   -0.000052   -0.000049
 step:   0.5752(harm=  2.4928)  dis= 0.00502  next Energy=  -592.090686 (dE=-0.452E-03)
 bond charge predicted
       N       E                     dE             d eps       ncg     rms          rms(c)
DAV:   1    -0.592090406969E+03   -0.12217E-03   -0.72468E-03  8576   0.170E-01    0.260E-02
RMM:   2    -0.592090424994E+03   -0.18025E-04   -0.18112E-04  8587   0.513E-02    0.274E-02
RMM:   3    -0.592090432124E+03   -0.71294E-05   -0.62683E-05  9724   0.248E-02    0.312E-02
RMM:   4    -0.592090437203E+03   -0.50799E-05   -0.26075E-05  7983   0.160E-02    0.361E-02
RMM:   5    -0.592090425062E+03    0.12141E-04   -0.15646E-05  7524   0.135E-02    0.167E-02
RMM:   6    -0.592090426055E+03   -0.99254E-06   -0.17711E-05  7415   0.106E-02    0.179E-02
RMM:   7    -0.592090422648E+03    0.34063E-05   -0.67201E-06  6294   0.100E-02    0.677E-03
RMM:   8    -0.592090421987E+03    0.66175E-06   -0.18121E-06  5465   0.461E-03
  16 F= -.59209042E+03 E0= -.59209505E+03  d E =-.188302E-03
 curvature:  -2.82 expect dE=-0.676E-03 dE for cont linesearch -0.100E-03
 ZBRENT: increasing intervall
 opt :   1.4379  next Energy=  -592.090638 (dE=-0.404E-03)
 bond charge predicted
       N       E                     dE             d eps       ncg     rms          rms(c)
DAV:   1    -0.592090585935E+03   -0.16329E-03   -0.29085E-02  8528   0.340E-01    0.491E-02
RMM:   2    -0.592090657563E+03   -0.71628E-04   -0.67734E-04  9009   0.920E-02    0.601E-02
RMM:   3    -0.592090680057E+03   -0.22494E-04   -0.20215E-04 10068   0.448E-02    0.610E-02
RMM:   4    -0.592090713001E+03   -0.32944E-04   -0.14336E-04 10530   0.267E-02    0.725E-02
RMM:   5    -0.592090643402E+03    0.69599E-04   -0.83167E-05  8630   0.298E-02    0.270E-02
RMM:   6    -0.592090641809E+03    0.15928E-05   -0.49712E-05  8955   0.196E-02    0.222E-02
RMM:   7    -0.592090640560E+03    0.12489E-05   -0.21883E-05  7724   0.145E-02    0.163E-02
RMM:   8    -0.592090637069E+03    0.34906E-05   -0.76398E-06  6455   0.881E-03    0.578E-03
RMM:   9    -0.592090636871E+03    0.19838E-06   -0.24577E-06  5709   0.427E-03
  17 F= -.59209064E+03 E0= -.59209528E+03  d E =-.403187E-03
 curvature:  -6.06 expect dE=-0.755E-03 dE for cont linesearch -0.976E-04
 ZBRENT: increasing intervall
 opt :   3.1634  next Energy=  -592.090813 (dE=-0.579E-03)
 bond charge predicted
       N       E                     dE             d eps       ncg     rms          rms(c)
DAV:   1    -0.592090618000E+03    0.19069E-04   -0.11640E-01  8520   0.679E-01    0.984E-02
RMM:   2    -0.592090909276E+03   -0.29128E-03   -0.26943E-03  9072   0.182E-01    0.122E-01
RMM:   3    -0.592091002362E+03   -0.93086E-04   -0.79190E-04 10170   0.882E-02    0.124E-01
RMM:   4    -0.592091096470E+03   -0.94109E-04   -0.57446E-04 10536   0.542E-02    0.139E-01
RMM:   5    -0.592090841962E+03    0.25451E-03   -0.33682E-04  8728   0.600E-02    0.513E-02
RMM:   6    -0.592090843587E+03   -0.16251E-05   -0.21120E-04  9620   0.383E-02    0.469E-02
RMM:   7    -0.592090833076E+03    0.10511E-04   -0.87055E-05  8595   0.295E-02    0.309E-02
RMM:   8    -0.592090819985E+03    0.13091E-04   -0.29189E-05  8097   0.158E-02    0.110E-02
RMM:   9    -0.592090819404E+03    0.58086E-06   -0.11068E-05  6889   0.745E-03    0.689E-03
RMM:  10    -0.592090819128E+03    0.27600E-06   -0.24760E-06  5718   0.492E-03
  18 F= -.59209082E+03 E0= -.59209547E+03  d E =-.585444E-03
 curvature: -10.95 expect dE=-0.985E-03 dE for cont linesearch -0.634E-07
 trial: gam= 0.23914 g(F)=  0.899E-04 g(S)=  0.000E+00 ort = 0.378E-05 (trialstep = 0.748E+00)
 search vector abs. value=  0.233E-03
 bond charge predicted
       N       E                     dE             d eps       ncg     rms          rms(c)
DAV:   1    -0.592090879706E+03   -0.60302E-04   -0.20840E-03  9680   0.913E-02    0.135E-02
RMM:   2    -0.592090892263E+03   -0.12556E-04   -0.67136E-05  8813   0.292E-02    0.292E-02
RMM:   3    -0.592090885385E+03    0.68772E-05   -0.15773E-05  8167   0.132E-02    0.137E-02
RMM:   4    -0.592090886644E+03   -0.12584E-05   -0.10363E-05  6876   0.863E-03    0.160E-02
RMM:   5    -0.592090884660E+03    0.19833E-05   -0.51117E-06  6204   0.865E-03    0.929E-03
RMM:   6    -0.592090884354E+03    0.30684E-06   -0.39320E-06  6064   0.730E-03
  19 F= -.59209088E+03 E0= -.59209554E+03  d E =-.652255E-04
 ZBRENT: can't locate minimum, use default step
 trial-energy change:   -0.000065  1 .order   -0.000064   -0.000068   -0.000060
 step:   2.9909(harm=  6.4964)  dis= 0.00804  next Energy=  -592.091114 (dE=-0.295E-03)
 bond charge predicted
       N       E                     dE             d eps       ncg     rms          rms(c)
DAV:   1    -0.592090992108E+03   -0.10745E-03   -0.18646E-02  8544   0.272E-01    0.399E-02
RMM:   2    -0.592091057762E+03   -0.65654E-04   -0.48416E-04  9332   0.769E-02    0.617E-02
RMM:   3    -0.592091043930E+03    0.13832E-04   -0.12621E-04 10075   0.345E-02    0.433E-02
RMM:   4    -0.592091062403E+03   -0.18473E-04   -0.10691E-04  9525   0.263E-02    0.548E-02
RMM:   5    -0.592091022853E+03    0.39550E-04   -0.46931E-05  8587   0.237E-02    0.114E-02
RMM:   6    -0.592091032444E+03   -0.95911E-05   -0.36465E-05  8551   0.149E-02    0.269E-02
RMM:   7    -0.592091023731E+03    0.87129E-05   -0.10598E-05  6628   0.117E-02    0.755E-03
RMM:   8    -0.592091023235E+03    0.49642E-06   -0.39268E-06  6085   0.494E-03
  20 F= -.59209102E+03 E0= -.59209568E+03  d E =-.204107E-03
 curvature:  -5.23 expect dE=-0.362E-03 dE for cont linesearch -0.414E-04
 ZBRENT: increasing intervall
 opt :   7.4772  next Energy=  -592.091048 (dE=-0.229E-03)
 bond charge predicted
       N       E                     dE             d eps       ncg     rms          rms(c)
DAV:   1    -0.592090948702E+03    0.75030E-04   -0.74920E-02  8512   0.543E-01    0.783E-02
RMM:   2    -0.592091165536E+03   -0.21683E-03   -0.17731E-03  8911   0.149E-01    0.113E-01
RMM:   3    -0.592091154376E+03    0.11160E-04   -0.48497E-04 10371   0.658E-02    0.882E-02
RMM:   4    -0.592091181769E+03   -0.27393E-04   -0.35361E-04 10005   0.461E-02    0.905E-02
RMM:   5    -0.592091072530E+03    0.10924E-03   -0.21541E-04  8829   0.485E-02    0.340E-02
RMM:   6    -0.592091085899E+03   -0.13370E-04   -0.13741E-04  9683   0.288E-02    0.390E-02
RMM:   7    -0.592091070581E+03    0.15318E-04   -0.44620E-05  8269   0.223E-02    0.246E-02
RMM:   8    -0.592091063443E+03    0.71375E-05   -0.13201E-05  7098   0.116E-02    0.787E-03
RMM:   9    -0.592091063470E+03   -0.26399E-07   -0.82001E-06  6618   0.633E-03
  21 F= -.59209106E+03 E0= -.59209574E+03  d E =-.244342E-03
 curvature:  -3.10 expect dE=-0.102E-02 dE for cont linesearch -0.104E-04
 ZBRENT: bracketing found
 ZBRENT: interpolating
 opt :   5.7094  next Energy=  -592.091088 (dE=-0.269E-03)
 bond charge predicted
       N       E                     dE             d eps       ncg     rms          rms(c)
DAV:   1    -0.592091067035E+03   -0.35916E-05   -0.11581E-02  8512   0.214E-01    0.310E-02
RMM:   2    -0.592091099715E+03   -0.32680E-04   -0.28368E-04  8707   0.631E-02    0.424E-02
RMM:   3    -0.592091101635E+03   -0.19194E-05   -0.79007E-05 10040   0.264E-02    0.373E-02
RMM:   4    -0.592091103841E+03   -0.22067E-05   -0.50473E-05  9242   0.189E-02    0.385E-02
RMM:   5    -0.592091086465E+03    0.17376E-04   -0.29421E-05  8295   0.186E-02    0.146E-02
RMM:   6    -0.592091089619E+03   -0.31540E-05   -0.20906E-05  7856   0.140E-02    0.191E-02
RMM:   7    -0.592091086216E+03    0.34030E-05   -0.77009E-06  6349   0.101E-02    0.110E-02
RMM:   8    -0.592091084751E+03    0.14655E-05   -0.19984E-06  5544   0.583E-03    0.189E-03
RMM:   9    -0.592091084821E+03   -0.70624E-07   -0.84033E-07  4822   0.218E-03
  22 F= -.59209108E+03 E0= -.59209576E+03  d E =-.265693E-03
 curvature:  -7.37 expect dE=-0.134E-02 dE for cont linesearch -0.159E-06
 trial: gam= 2.04138 g(F)=  0.182E-03 g(S)=  0.000E+00 ort = 0.224E-05 (trialstep = 0.349E+00)
 search vector abs. value=  0.116E-02
 bond charge predicted
       N       E                     dE             d eps       ncg     rms          rms(c)
DAV:   1    -0.592091142716E+03   -0.57965E-04   -0.22358E-03  8736   0.943E-02    0.137E-02
RMM:   2    -0.592091149219E+03   -0.65027E-05   -0.52762E-05  8334   0.280E-02    0.190E-02
RMM:   3    -0.592091149816E+03   -0.59708E-06   -0.14323E-05  8141   0.120E-02    0.163E-02
RMM:   4    -0.592091150617E+03   -0.80106E-06   -0.86286E-06  6832   0.842E-03    0.175E-02
RMM:   5    -0.592091147082E+03    0.35349E-05   -0.56829E-06  6257   0.959E-03    0.724E-03
RMM:   6    -0.592091147726E+03   -0.64414E-06   -0.47173E-06  6069   0.631E-03
  23 F= -.59209115E+03 E0= -.59209582E+03  d E =-.629048E-04
 ZBRENT: can't locate minimum, use default step
 trial-energy change:   -0.000063  1 .order   -0.000062   -0.000065   -0.000059
 step:   1.3952(harm=  3.9372)  dis= 0.00853  next Energy=  -592.091452 (dE=-0.367E-03)
 bond charge predicted
       N       E                     dE             d eps       ncg     rms          rms(c)
DAV:   1    -0.592091266139E+03   -0.11906E-03   -0.20130E-02  8504   0.283E-01    0.413E-02
RMM:   2    -0.592091333216E+03   -0.67077E-04   -0.48014E-04  9433   0.757E-02    0.607E-02
RMM:   3    -0.592091324661E+03    0.85552E-05   -0.12659E-04 10086   0.347E-02    0.461E-02
RMM:   4    -0.592091341828E+03   -0.17167E-04   -0.11055E-04  9376   0.272E-02    0.556E-02
RMM:   5    -0.592091301403E+03    0.40425E-04   -0.47835E-05  8442   0.245E-02    0.133E-02
RMM:   6    -0.592091310770E+03   -0.93664E-05   -0.40904E-05  8541   0.167E-02    0.280E-02
RMM:   7    -0.592091302106E+03    0.86633E-05   -0.11784E-05  6707   0.123E-02    0.957E-03
RMM:   8    -0.592091301265E+03    0.84103E-06   -0.39297E-06  5998   0.570E-03
  24 F= -.59209130E+03 E0= -.59209598E+03  d E =-.216444E-03
 curvature:  -6.10 expect dE=-0.493E-03 dE for cont linesearch -0.817E-04
 ZBRENT: increasing intervall
 opt :   3.4880  next Energy=  -592.091467 (dE=-0.383E-03)
 bond charge predicted
       N       E                     dE             d eps       ncg     rms          rms(c)
DAV:   1    -0.592091331704E+03   -0.29598E-04   -0.80644E-02  8472   0.565E-01    0.811E-02
RMM:   2    -0.592091582770E+03   -0.25107E-03   -0.18759E-03  8990   0.154E-01    0.120E-01
RMM:   3    -0.592091561827E+03    0.20943E-04   -0.50124E-04 10266   0.690E-02    0.899E-02
RMM:   4    -0.592091605803E+03   -0.43977E-04   -0.38951E-04  9980   0.481E-02    0.981E-02
RMM:   5    -0.592091482765E+03    0.12304E-03   -0.21624E-04  8717   0.490E-02    0.398E-02
RMM:   6    -0.592091490397E+03   -0.76319E-05   -0.13556E-04  9256   0.323E-02    0.420E-02
RMM:   7    -0.592091479858E+03    0.10539E-04   -0.56203E-05  8333   0.246E-02    0.290E-02
RMM:   8    -0.592091469021E+03    0.10837E-04   -0.15827E-05  7314   0.136E-02    0.768E-03
RMM:   9    -0.592091469145E+03   -0.12416E-06   -0.89473E-06  6522   0.601E-03
  25 F= -.59209147E+03 E0= -.59209616E+03  d E =-.384324E-03
 curvature: -12.40 expect dE=-0.203E-03 dE for cont linesearch -0.102E-04
 trial: gam=-0.03025 g(F)=  0.164E-04 g(S)=  0.000E+00 ort = 0.309E-04 (trialstep = 0.977E+00)
 search vector abs. value=  0.156E-04
 reached required accuracy - stopping structural energy minimisation
 augmentation electrons   35.757009942041051     
 soft         electrons   244.33856665095186     
 total        electrons   280.09557659299293     
 augmentation electrons   35.757009942041051     
 soft         electrons   244.33856665095186     
 total        electrons   280.09557659299293     
 augmentation electrons   35.757009942041051     
 soft         electrons   244.33856665095186     
 total        electrons   280.09557659299293     
 augmentation electrons   35.757009942041051     
 soft         electrons   244.33856665095186     
 total        electrons   280.09557659299293     
 augmentation electrons   35.757009942041051     
 soft         electrons   244.33856665095186     
 total        electrons   280.09557659299293     
 augmentation electrons   35.757009942041051     
 soft         electrons   244.33856665095186     
 total        electrons   280.09557659299293     
 augmentation electrons   35.757009942041051     
 soft         electrons   244.33856665095186     
 total        electrons   280.09557659299293     
 augmentation electrons   35.757009942041051     
 soft         electrons   244.33856665095186     
 total        electrons   280.09557659299293     
 augmentation electrons   35.757009942041051     
 soft         electrons   244.33856665095186     
 total        electrons   280.09557659299293     
 augmentation electrons   35.757009942041051     
 soft         electrons   244.33856665095186     
 total        electrons   280.09557659299293     
 augmentation electrons   35.757009942041051     
 soft         electrons   244.33856665095186     
 total        electrons   280.09557659299293     
 augmentation electrons   35.757009942041051     
 soft         electrons   244.33856665095186     
 total        electrons   280.09557659299293     
 augmentation electrons   35.757009942041051     
 soft         electrons   244.33856665095186     
 total        electrons   280.09557659299293     
 augmentation electrons   35.757009942041051     
 soft         electrons   244.33856665095186     
 total        electrons   280.09557659299293     
 augmentation electrons   35.757009942041051     
 soft         electrons   244.33856665095186     
 total        electrons   280.09557659299293     
 augmentation electrons   35.757009942041051     
 soft         electrons   244.33856665095186     
 total        electrons   280.09557659299293     
 augmentation electrons   35.757009942041051     
 soft         electrons   244.33856665095186     
 total        electrons   280.09557659299293     
 augmentation electrons   35.757009942041051     
 soft         electrons   244.33856665095186     
 total        electrons   280.09557659299293     
 augmentation electrons   35.757009942041051     
 soft         electrons   244.33856665095186     
 total        electrons   280.09557659299293     
 augmentation electrons   35.757009942041051     
 soft         electrons   244.33856665095186     
 total        electrons   280.09557659299293     
 augmentation electrons   35.757009942041051     
 soft         electrons   244.33856665095186     
 total        electrons   280.09557659299293     
 augmentation electrons   35.757009942041051     
 soft         electrons   244.33856665095186     
 total        electrons   280.09557659299293     
 augmentation electrons   35.757009942041051     
 soft         electrons   244.33856665095186     
 total        electrons   280.09557659299293     
 augmentation electrons   35.757009942041051     
 soft         electrons   244.33856665095186     
 total        electrons   280.09557659299293     
 augmentation electrons   35.757009942041051     
 soft         electrons   244.33856665095186     
 total        electrons   280.09557659299293     
 augmentation electrons   35.757009942041051     
 soft         electrons   244.33856665095186     
 total        electrons   280.09557659299293     
 augmentation electrons   35.757009942041051     
 soft         electrons   244.33856665095186     
 total        electrons   280.09557659299293     
 augmentation electrons   35.757009942041051     
 soft         electrons   244.33856665095186     
 total        electrons   280.09557659299293     
 augmentation electrons   35.757009942041051     
 soft         electrons   244.33856665095186     
 total        electrons   280.09557659299293     
 augmentation electrons   35.757009942041051     
 soft         electrons   244.33856665095186     
 total        electrons   280.09557659299293     
 augmentation electrons   35.757009942041051     
 soft         electrons   244.33856665095186     
 total        electrons   280.09557659299293     
 augmentation electrons   35.757009942041051     
 soft         electrons   244.33856665095186     
 total        electrons   280.09557659299293     
 augmentation electrons   35.757009942041051     
 soft         electrons   244.33856665095186     
 total        electrons   280.09557659299293     
 augmentation electrons   35.757009942041051     
 soft         electrons   244.33856665095186     
 total        electrons   280.09557659299293     
 augmentation electrons   35.757009942041051     
 soft         electrons   244.33856665095186     
 total        electrons   280.09557659299293     
 augmentation electrons   35.757009942041051     
 soft         electrons   244.33856665095186     
 total        electrons   280.09557659299293     
 augmentation electrons   35.757009942041051     
 soft         electrons   244.33856665095186     
 total        electrons   280.09557659299293     
 augmentation electrons   35.757009942041051     
 soft         electrons   244.33856665095186     
 total        electrons   280.09557659299293     
 augmentation electrons   35.757009942041051     
 soft         electrons   244.33856665095186     
 total        electrons   280.09557659299293     
 augmentation electrons   35.757009942041051     
 soft         electrons   244.33856665095186     
 total        electrons   280.09557659299293     
 augmentation electrons   35.757009942041051     
 soft         electrons   244.33856665095186     
 total        electrons   280.09557659299293     
 augmentation electrons   35.757009942041051     
 soft         electrons   244.33856665095186     
 total        electrons   280.09557659299293     
 augmentation electrons   35.757009942041051     
 soft         electrons   244.33856665095186     
 total        electrons   280.09557659299293     
 augmentation electrons   35.757009942041051     
 soft         electrons   244.33856665095186     
 total        electrons   280.09557659299293     
 augmentation electrons   35.757009942041051     
 soft         electrons   244.33856665095186     
 total        electrons   280.09557659299293     
 augmentation electrons   35.757009942041051     
 soft         electrons   244.33856665095186     
 total        electrons   280.09557659299293     
 augmentation electrons   35.757009942041051     
 soft         electrons   244.33856665095186     
 total        electrons   280.09557659299293     
 augmentation electrons   35.757009942041051     
 soft         electrons   244.33856665095186     
 total        electrons   280.09557659299293     
 augmentation electrons   35.757009942041051     
 soft         electrons   244.33856665095186     
 total        electrons   280.09557659299293     
 augmentation electrons   35.757009942041051     
 soft         electrons   244.33856665095186     
 total        electrons   280.09557659299293     
 augmentation electrons   35.757009942041051     
 soft         electrons   244.33856665095186     
 total        electrons   280.09557659299293     
 augmentation electrons   35.757009942041051     
 soft         electrons   244.33856665095186     
 total        electrons   280.09557659299293     
 augmentation electrons   35.757009942041051     
 soft         electrons   244.33856665095186     
 total        electrons   280.09557659299293     
 augmentation electrons   35.757009942041051     
 soft         electrons   244.33856665095186     
 total        electrons   280.09557659299293     
 augmentation electrons   35.757009942041051     
 soft         electrons   244.33856665095186     
 total        electrons   280.09557659299293     
 augmentation electrons   35.757009942041051     
 soft         electrons   244.33856665095186     
 total        electrons   280.09557659299293     
 augmentation electrons   35.757009942041051     
 soft         electrons   244.33856665095186     
 total        electrons   280.09557659299293     
 augmentation electrons   35.757009942041051     
 soft         electrons   244.33856665095186     
 total        electrons   280.09557659299293     
 augmentation electrons   35.757009942041051     
 soft         electrons   244.33856665095186     
 total        electrons   280.09557659299293     
 augmentation electrons   35.757009942041051     
 soft         electrons   244.33856665095186     
 total        electrons   280.09557659299293     
 augmentation electrons   35.757009942041051     
 soft         electrons   244.33856665095186     
 total        electrons   280.09557659299293     
 augmentation electrons   35.757009942041051     
 soft         electrons   244.33856665095186     
 total        electrons   280.09557659299293     
 augmentation electrons   35.757009942041051     
 soft         electrons   244.33856665095186     
 total        electrons   280.09557659299293     
 augmentation electrons   35.757009942041051     
 soft         electrons   244.33856665095186     
 total        electrons   280.09557659299293     
 augmentation electrons   35.757009942041051     
 soft         electrons   244.33856665095186     
 total        electrons   280.09557659299293     
 augmentation electrons   35.757009942041051     
 soft         electrons   244.33856665095186     
 total        electrons   280.09557659299293     
 augmentation electrons   35.757009942041051     
 soft         electrons   244.33856665095186     
 total        electrons   280.09557659299293     
 augmentation electrons   35.757009942041051     
 soft         electrons   244.33856665095186     
 total        electrons   280.09557659299293     
 augmentation electrons   35.757009942041051     
 soft         electrons   244.33856665095186     
 total        electrons   280.09557659299293     
 augmentation electrons   35.757009942041051     
 soft         electrons   244.33856665095186     
 total        electrons   280.09557659299293     
 augmentation electrons   35.757009942041051     
 soft         electrons   244.33856665095186     
 total        electrons   280.09557659299293     
 augmentation electrons   35.757009942041051     
 soft         electrons   244.33856665095186     
 total        electrons   280.09557659299293     
Note: The following floating-point exceptions are signalling: IEEE_OVERFLOW_FLAG
Note: The following floating-point exceptions are signalling: IEEE_OVERFLOW_FLAG
Note: The following floating-point exceptions are signalling: IEEE_OVERFLOW_FLAG
Note: The following floating-point exceptions are signalling: IEEE_OVERFLOW_FLAG
Note: The following floating-point exceptions are signalling: IEEE_OVERFLOW_FLAG
Note: The following floating-point exceptions are signalling: IEEE_OVERFLOW_FLAG
Note: The following floating-point exceptions are signalling: IEEE_OVERFLOW_FLAG
Note: The following floating-point exceptions are signalling: IEEE_OVERFLOW_FLAG
Note: The following floating-point exceptions are signalling: IEEE_OVERFLOW_FLAG
Note: The following floating-point exceptions are signalling: IEEE_OVERFLOW_FLAG
Note: The following floating-point exceptions are signalling: IEEE_OVERFLOW_FLAG
Note: The following floating-point exceptions are signalling: IEEE_OVERFLOW_FLAG
Note: The following floating-point exceptions are signalling: IEEE_OVERFLOW_FLAG
Note: The following floating-point exceptions are signalling: IEEE_OVERFLOW_FLAG
Note: The following floating-point exceptions are signalling: IEEE_OVERFLOW_FLAG
Note: The following floating-point exceptions are signalling: IEEE_OVERFLOW_FLAG
Note: The following floating-point exceptions are signalling: IEEE_OVERFLOW_FLAG
Note: The following floating-point exceptions are signalling: IEEE_OVERFLOW_FLAG
Note: The following floating-point exceptions are signalling: IEEE_OVERFLOW_FLAG
Note: The following floating-point exceptions are signalling: IEEE_OVERFLOW_FLAG
Note: The following floating-point exceptions are signalling: IEEE_OVERFLOW_FLAG
Note: The following floating-point exceptions are signalling: IEEE_OVERFLOW_FLAG
Note: The following floating-point exceptions are signalling: IEEE_OVERFLOW_FLAG
Note: The following floating-point exceptions are signalling: IEEE_OVERFLOW_FLAG
Note: The following floating-point exceptions are signalling: IEEE_OVERFLOW_FLAG
Note: The following floating-point exceptions are signalling: IEEE_OVERFLOW_FLAG
Note: The following floating-point exceptions are signalling: IEEE_OVERFLOW_FLAG
Note: The following floating-point exceptions are signalling: IEEE_OVERFLOW_FLAG
Note: The following floating-point exceptions are signalling: IEEE_OVERFLOW_FLAG
Note: The following floating-point exceptions are signalling: IEEE_OVERFLOW_FLAG
Note: The following floating-point exceptions are signalling: IEEE_OVERFLOW_FLAG
Note: The following floating-point exceptions are signalling: IEEE_OVERFLOW_FLAG
Note: The following floating-point exceptions are signalling: IEEE_OVERFLOW_FLAG
Note: The following floating-point exceptions are signalling: IEEE_OVERFLOW_FLAG
Note: The following floating-point exceptions are signalling: IEEE_OVERFLOW_FLAG
Note: The following floating-point exceptions are signalling: IEEE_OVERFLOW_FLAG
Note: The following floating-point exceptions are signalling: IEEE_OVERFLOW_FLAG
Note: The following floating-point exceptions are signalling: IEEE_OVERFLOW_FLAG
Note: The following floating-point exceptions are signalling: IEEE_OVERFLOW_FLAG
Note: The following floating-point exceptions are signalling: IEEE_OVERFLOW_FLAG
Note: The following floating-point exceptions are signalling: IEEE_OVERFLOW_FLAG
Note: The following floating-point exceptions are signalling: IEEE_OVERFLOW_FLAG
Note: The following floating-point exceptions are signalling: IEEE_OVERFLOW_FLAG
Note: The following floating-point exceptions are signalling: IEEE_OVERFLOW_FLAG
Note: The following floating-point exceptions are signalling: IEEE_OVERFLOW_FLAG
Note: The following floating-point exceptions are signalling: IEEE_OVERFLOW_FLAG
Note: The following floating-point exceptions are signalling: IEEE_OVERFLOW_FLAG
Note: The following floating-point exceptions are signalling: IEEE_OVERFLOW_FLAG
Note: The following floating-point exceptions are signalling: IEEE_OVERFLOW_FLAG
Note: The following floating-point exceptions are signalling: IEEE_OVERFLOW_FLAG
Note: The following floating-point exceptions are signalling: IEEE_OVERFLOW_FLAG
Note: The following floating-point exceptions are signalling: IEEE_OVERFLOW_FLAG
Note: The following floating-point exceptions are signalling: IEEE_OVERFLOW_FLAG
Note: The following floating-point exceptions are signalling: IEEE_OVERFLOW_FLAG
Note: The following floating-point exceptions are signalling: IEEE_OVERFLOW_FLAG
Note: The following floating-point exceptions are signalling: IEEE_OVERFLOW_FLAG
Note: The following floating-point exceptions are signalling: IEEE_OVERFLOW_FLAG
Note: The following floating-point exceptions are signalling: IEEE_OVERFLOW_FLAG
Note: The following floating-point exceptions are signalling: IEEE_OVERFLOW_FLAG
Note: The following floating-point exceptions are signalling: IEEE_OVERFLOW_FLAG
Note: The following floating-point exceptions are signalling: IEEE_OVERFLOW_FLAG
Note: The following floating-point exceptions are signalling: IEEE_OVERFLOW_FLAG
Note: The following floating-point exceptions are signalling: IEEE_OVERFLOW_FLAG
Note: The following floating-point exceptions are signalling: IEEE_OVERFLOW_FLAG
Note: The following floating-point exceptions are signalling: IEEE_OVERFLOW_FLAG
Note: The following floating-point exceptions are signalling: IEEE_OVERFLOW_FLAG
Note: The following floating-point exceptions are signalling: IEEE_OVERFLOW_FLAG
Note: The following floating-point exceptions are signalling: IEEE_OVERFLOW_FLAG
Note: The following floating-point exceptions are signalling: IEEE_OVERFLOW_FLAG
Note: The following floating-point exceptions are signalling: IEEE_OVERFLOW_FLAG
Note: The following floating-point exceptions are signalling: IEEE_OVERFLOW_FLAG
Note: The following floating-point exceptions are signalling: IEEE_OVERFLOW_FLAG
