   75   75    1    1
  0.2082215E+02  0.1053953E-08  0.6141200E-09  0.2412750E-08  0.5000000E-15
   1.0000000000000000E-004
  CAR 
 Name                                    
    285     23    184

  0.3742002E-15  0.3742002E-15  0.1262379E-14  0.2222222E-01
    1      -13.827962   1.000000
    2      -12.693963   1.000000
    3      -12.639416   1.000000
    4      -12.612586   1.000000
    5      -11.663515   1.000000
    6      -11.554198   1.000000
    7      -11.492229   1.000000
    8      -11.441406   1.000000
    9      -11.268895   1.000000
   10      -11.118044   1.000000
   11      -11.071297   1.000000
   12      -10.946406   1.000000
   13      -10.893605   1.000000
   14      -10.580496   1.000000
   15      -10.380651   1.000000
   16      -10.205263   1.000000
   17      -10.013892   1.000000
   18       -9.988724   1.000000
   19       -9.726900   1.000000
   20       -9.636522   1.000000
   21       -9.513790   1.000000
   22       -9.429918   1.000000
   23       -9.357660   1.000000
   24       -9.280416   1.000000
   25       -8.753750   1.000000
   26       -8.728328   1.000000
   27       -8.648180   1.000000
   28       -8.352890   1.000000
   29       -8.335843   1.000000
   30       -8.139652   1.000000
   31       -8.007666   1.000000
   32       -7.839288   1.000000
   33       -7.600310   1.000000
   34       -7.319468   1.000000
   35       -7.253464   1.000000
   36       -7.099680   1.000000
   37       -7.077302   1.000000
   38       -6.924931   1.000000
   39       -6.820602   1.000000
   40       -6.801776   1.000000
   41       -6.602848   1.000000
   42       -6.593557   1.000000
   43       -6.562377   1.000000
   44       -6.452032   1.000000
   45       -6.410647   1.000000
   46       -6.285381   1.000000
   47       -6.222056   1.000000
   48       -6.152687   1.000000
   49       -6.052191   1.000000
   50       -5.943030   1.000000
   51       -5.741718   1.000000
   52       -5.695735   1.000000
   53       -5.658693   1.000000
   54       -5.586957   1.000000
   55       -5.490526   1.000000
   56       -5.463311   1.000000
   57       -5.384446   1.000000
   58       -5.315588   1.000000
   59       -5.221495   1.000000
   60       -5.196486   1.000000
   61       -5.089719   1.000000
   62       -5.072461   1.000000
   63       -5.032008   1.000000
   64       -4.750475   1.000000
   65       -4.716890   1.000000
   66       -4.567126   1.000000
   67       -4.539103   1.000000
   68       -4.509719   1.000000
   69       -4.463454   1.000000
   70       -4.366040   1.000000
   71       -4.265100   1.000000
   72       -4.234457   1.000000
   73       -4.141378   1.000000
   74       -4.073519   1.000000
   75       -4.058216   1.000000
   76       -4.028742   1.000000
   77       -4.012600   1.000000
   78       -3.972005   1.000000
   79       -3.898493   1.000000
   80       -3.819453   1.000000
   81       -3.795299   1.000000
   82       -3.772185   1.000000
   83       -3.735530   1.000000
   84       -3.709908   1.000000
   85       -3.698361   1.000000
   86       -3.645870   1.000000
   87       -3.620615   1.000000
   88       -3.521373   1.000000
   89       -3.464010   1.000000
   90       -3.451048   1.000000
   91       -3.388614   1.000000
   92       -3.364718   1.000000
   93       -3.349401   1.000000
   94       -3.176853   1.000000
   95       -3.088878   1.000000
   96       -3.001695   1.000000
   97       -2.957728   1.000000
   98       -2.803759   1.000000
   99       -2.793111   1.000000
  100       -2.654273   1.000000
  101       -2.610428   1.000000
  102       -2.507891   1.000000
  103       -2.409546   1.000000
  104       -2.403801   1.000000
  105       -2.251525   1.000000
  106       -2.217019   1.000000
  107       -2.212416   1.000000
  108       -2.148762   1.000000
  109       -2.021340   1.000000
  110       -1.993411   1.000000
  111       -1.941567   1.000000
  112       -1.833498   1.000000
  113       -1.773237   1.000000
  114       -1.731097   1.000000
  115       -1.700955   1.000000
  116       -1.669038   1.000000
  117       -1.652828   1.000000
  118       -1.557756   1.000000
  119       -1.550008   1.000000
  120       -1.489646   1.000000
  121       -1.419758   1.000000
  122       -1.070894   1.000000
  123       -0.863586   1.000000
  124       -0.856469   1.000000
  125       -0.744236   1.000000
  126       -0.661645   1.000000
  127       -0.554338   1.000000
  128       -0.371772   1.000000
  129       -0.281900   1.000000
  130       -0.274423   1.000000
  131       -0.072936   1.000000
  132       -0.024852   1.000000
  133        0.037226   1.000000
  134        0.126091   1.000000
  135        0.339679   1.000126
  136        0.350234   1.000222
  137        0.383142   1.001104
  138        0.447788   1.012087
  139        0.467463   1.019984
  140        0.482069   1.026686
  141        0.555913   0.985567
  142        0.574292   0.919657
  143        0.659312   0.294831
  144        0.691776   0.091218
  145        0.726279  -0.014815
  146        0.772458  -0.032394
  147        0.787829  -0.026014
  148        0.837227  -0.007244
  149        0.938085  -0.000075
  150        0.970290  -0.000011
  151        1.154677  -0.000000
  152        1.236322  -0.000000
  153        1.253927  -0.000000
  154        1.286736  -0.000000
  155        1.349555  -0.000000
  156        1.416552  -0.000000
  157        1.454897  -0.000000
  158        1.484021  -0.000000
  159        1.504139  -0.000000
  160        1.555195  -0.000000
  161        1.561663  -0.000000
  162        1.603694  -0.000000
  163        1.654756  -0.000000
  164        1.673941  -0.000000
  165        1.752021  -0.000000
  166        1.791642  -0.000000
  167        1.842572  -0.000000
  168        1.881822  -0.000000
  169        1.892618  -0.000000
  170        1.908234  -0.000000
  171        1.939983  -0.000000
  172        1.943068  -0.000000
  173        1.958746  -0.000000
  174        2.073300  -0.000000
  175        2.126099  -0.000000
  176        2.358517  -0.000000
  177        2.473000  -0.000000
  178        2.570708  -0.000000
  179        2.616773  -0.000000
  180        2.709543  -0.000000
  181        2.755637  -0.000000
  182        2.859342  -0.000000
  183        2.991108  -0.000000
  184        3.622210   0.000000

  0.2000000E+00  0.3742002E-15  0.1262379E-14  0.4444444E-01
    1      -13.779356   1.000000
    2      -13.071778   1.000000
    3      -12.572808   1.000000
    4      -12.184313   1.000000
    5      -11.908353   1.000000
    6      -11.652889   1.000000
    7      -11.494477   1.000000
    8      -11.195770   1.000000
    9      -11.114993   1.000000
   10      -11.077184   1.000000
   11      -11.026208   1.000000
   12      -10.979203   1.000000
   13      -10.818789   1.000000
   14      -10.648767   1.000000
   15      -10.465522   1.000000
   16      -10.438882   1.000000
   17      -10.413989   1.000000
   18       -9.746256   1.000000
   19       -9.714037   1.000000
   20       -9.628450   1.000000
   21       -9.414011   1.000000
   22       -9.398666   1.000000
   23       -9.314546   1.000000
   24       -9.278972   1.000000
   25       -8.973566   1.000000
   26       -8.807347   1.000000
   27       -8.323498   1.000000
   28       -8.231043   1.000000
   29       -8.144356   1.000000
   30       -8.095347   1.000000
   31       -8.035619   1.000000
   32       -7.940973   1.000000
   33       -7.494006   1.000000
   34       -7.428271   1.000000
   35       -7.342981   1.000000
   36       -7.222682   1.000000
   37       -7.127465   1.000000
   38       -7.022295   1.000000
   39       -6.973906   1.000000
   40       -6.817842   1.000000
   41       -6.703098   1.000000
   42       -6.614644   1.000000
   43       -6.549014   1.000000
   44       -6.518979   1.000000
   45       -6.405039   1.000000
   46       -6.208540   1.000000
   47       -6.058059   1.000000
   48       -6.042905   1.000000
   49       -5.927980   1.000000
   50       -5.881790   1.000000
   51       -5.822159   1.000000
   52       -5.756091   1.000000
   53       -5.684699   1.000000
   54       -5.504526   1.000000
   55       -5.446866   1.000000
   56       -5.421898   1.000000
   57       -5.349073   1.000000
   58       -5.291668   1.000000
   59       -5.226569   1.000000
   60       -5.180565   1.000000
   61       -5.088134   1.000000
   62       -5.064726   1.000000
   63       -4.967213   1.000000
   64       -4.898088   1.000000
   65       -4.694760   1.000000
   66       -4.635494   1.000000
   67       -4.596778   1.000000
   68       -4.543191   1.000000
   69       -4.427743   1.000000
   70       -4.381894   1.000000
   71       -4.266797   1.000000
   72       -4.176009   1.000000
   73       -4.156161   1.000000
   74       -4.052082   1.000000
   75       -4.038337   1.000000
   76       -4.020662   1.000000
   77       -4.007998   1.000000
   78       -3.927714   1.000000
   79       -3.869714   1.000000
   80       -3.805345   1.000000
   81       -3.788167   1.000000
   82       -3.783186   1.000000
   83       -3.767423   1.000000
   84       -3.758039   1.000000
   85       -3.747780   1.000000
   86       -3.581105   1.000000
   87       -3.547490   1.000000
   88       -3.496489   1.000000
   89       -3.446003   1.000000
   90       -3.432033   1.000000
   91       -3.413362   1.000000
   92       -3.378867   1.000000
   93       -3.364943   1.000000
   94       -3.347004   1.000000
   95       -3.065148   1.000000
   96       -3.029028   1.000000
   97       -3.025150   1.000000
   98       -2.843348   1.000000
   99       -2.790983   1.000000
  100       -2.726716   1.000000
  101       -2.623342   1.000000
  102       -2.596119   1.000000
  103       -2.553620   1.000000
  104       -2.217121   1.000000
  105       -2.187153   1.000000
  106       -2.137965   1.000000
  107       -2.108337   1.000000
  108       -2.081343   1.000000
  109       -2.062874   1.000000
  110       -1.983902   1.000000
  111       -1.885044   1.000000
  112       -1.832291   1.000000
  113       -1.826992   1.000000
  114       -1.708494   1.000000
  115       -1.651550   1.000000
  116       -1.613106   1.000000
  117       -1.579891   1.000000
  118       -1.571512   1.000000
  119       -1.457620   1.000000
  120       -1.413178   1.000000
  121       -1.352353   1.000000
  122       -1.063601   1.000000
  123       -0.961090   1.000000
  124       -0.888529   1.000000
  125       -0.789661   1.000000
  126       -0.741584   1.000000
  127       -0.637515   1.000000
  128       -0.408122   1.000000
  129       -0.387850   1.000000
  130       -0.335044   1.000000
  131       -0.266041   1.000000
  132       -0.145600   1.000000
  133       -0.034546   1.000000
  134        0.049048   1.000000
  135        0.197610   1.000000
  136        0.265370   1.000001
  137        0.401686   1.002439
  138        0.437759   1.008950
  139        0.515419   1.035238
  140        0.564302   0.959561
  141        0.649008   0.376299
  142        0.679290   0.158127
  143        0.709735   0.022312
  144        0.721932  -0.007246
  145        0.751007  -0.034921
  146        0.793713  -0.023297
  147        0.825923  -0.010353
  148        0.858418  -0.003389
  149        0.892259  -0.000802
  150        0.983986  -0.000004
  151        1.195269  -0.000000
  152        1.274177  -0.000000
  153        1.296443  -0.000000
  154        1.398070  -0.000000
  155        1.417101  -0.000000
  156        1.426517  -0.000000
  157        1.444585  -0.000000
  158        1.457446  -0.000000
  159        1.564261  -0.000000
  160        1.601882  -0.000000
  161        1.628727  -0.000000
  162        1.647364  -0.000000
  163        1.676999  -0.000000
  164        1.702665  -0.000000
  165        1.762786  -0.000000
  166        1.770068  -0.000000
  167        1.823425  -0.000000
  168        1.857821  -0.000000
  169        1.895318  -0.000000
  170        1.959220  -0.000000
  171        1.964120  -0.000000
  172        1.995191  -0.000000
  173        2.006690  -0.000000
  174        2.050527  -0.000000
  175        2.085151  -0.000000
  176        2.215266  -0.000000
  177        2.255062  -0.000000
  178        2.282453  -0.000000
  179        2.652408  -0.000000
  180        2.731031  -0.000000
  181        2.853809  -0.000000
  182        2.976283  -0.000000
  183        3.449200   0.000000
  184        4.083767   0.000000

  0.4000000E+00  0.3742002E-15  0.1262379E-14  0.4444444E-01
    1      -13.634674   1.000000
    2      -13.396838   1.000000
    3      -12.438942   1.000000
    4      -12.214083   1.000000
    5      -11.642933   1.000000
    6      -11.621038   1.000000
    7      -11.566913   1.000000
    8      -11.112984   1.000000
    9      -11.106193   1.000000
   10      -11.055049   1.000000
   11      -10.953537   1.000000
   12      -10.922143   1.000000
   13      -10.803282   1.000000
   14      -10.731059   1.000000
   15      -10.687585   1.000000
   16      -10.548197   1.000000
   17      -10.524930   1.000000
   18       -9.967337   1.000000
   19       -9.748450   1.000000
   20       -9.637886   1.000000
   21       -9.362043   1.000000
   22       -9.349030   1.000000
   23       -9.299542   1.000000
   24       -9.180886   1.000000
   25       -8.974801   1.000000
   26       -8.705394   1.000000
   27       -8.255158   1.000000
   28       -8.131078   1.000000
   29       -7.906758   1.000000
   30       -7.864660   1.000000
   31       -7.842692   1.000000
   32       -7.752422   1.000000
   33       -7.730605   1.000000
   34       -7.597556   1.000000
   35       -7.501133   1.000000
   36       -7.439609   1.000000
   37       -7.373505   1.000000
   38       -7.259075   1.000000
   39       -7.159543   1.000000
   40       -6.892827   1.000000
   41       -6.682237   1.000000
   42       -6.592947   1.000000
   43       -6.470823   1.000000
   44       -6.390322   1.000000
   45       -6.274563   1.000000
   46       -6.206692   1.000000
   47       -6.052557   1.000000
   48       -5.977252   1.000000
   49       -5.893793   1.000000
   50       -5.855596   1.000000
   51       -5.818000   1.000000
   52       -5.784679   1.000000
   53       -5.619227   1.000000
   54       -5.542148   1.000000
   55       -5.446505   1.000000
   56       -5.400564   1.000000
   57       -5.318300   1.000000
   58       -5.245416   1.000000
   59       -5.220555   1.000000
   60       -5.181897   1.000000
   61       -5.075906   1.000000
   62       -4.995747   1.000000
   63       -4.896326   1.000000
   64       -4.758738   1.000000
   65       -4.743060   1.000000
   66       -4.644880   1.000000
   67       -4.577510   1.000000
   68       -4.527621   1.000000
   69       -4.477565   1.000000
   70       -4.461267   1.000000
   71       -4.365414   1.000000
   72       -4.227381   1.000000
   73       -4.141125   1.000000
   74       -4.089778   1.000000
   75       -4.040567   1.000000
   76       -4.018987   1.000000
   77       -3.996688   1.000000
   78       -3.967647   1.000000
   79       -3.948955   1.000000
   80       -3.790128   1.000000
   81       -3.760487   1.000000
   82       -3.706476   1.000000
   83       -3.701167   1.000000
   84       -3.692933   1.000000
   85       -3.659083   1.000000
   86       -3.621243   1.000000
   87       -3.592173   1.000000
   88       -3.511518   1.000000
   89       -3.497503   1.000000
   90       -3.450517   1.000000
   91       -3.416368   1.000000
   92       -3.304398   1.000000
   93       -3.287033   1.000000
   94       -3.241643   1.000000
   95       -3.180469   1.000000
   96       -3.116405   1.000000
   97       -3.058217   1.000000
   98       -3.043348   1.000000
   99       -2.957495   1.000000
  100       -2.854227   1.000000
  101       -2.743473   1.000000
  102       -2.609956   1.000000
  103       -2.341055   1.000000
  104       -2.218457   1.000000
  105       -2.211772   1.000000
  106       -2.178340   1.000000
  107       -2.116938   1.000000
  108       -1.922471   1.000000
  109       -1.895752   1.000000
  110       -1.880721   1.000000
  111       -1.863655   1.000000
  112       -1.768009   1.000000
  113       -1.690710   1.000000
  114       -1.650454   1.000000
  115       -1.612644   1.000000
  116       -1.580064   1.000000
  117       -1.541238   1.000000
  118       -1.369706   1.000000
  119       -1.319405   1.000000
  120       -1.279906   1.000000
  121       -1.225819   1.000000
  122       -1.077424   1.000000
  123       -1.046637   1.000000
  124       -1.023110   1.000000
  125       -0.989806   1.000000
  126       -0.797956   1.000000
  127       -0.720975   1.000000
  128       -0.708971   1.000000
  129       -0.688080   1.000000
  130       -0.490153   1.000000
  131       -0.393181   1.000000
  132       -0.340646   1.000000
  133       -0.054740   1.000000
  134       -0.013063   1.000000
  135        0.128874   1.000000
  136        0.351335   1.000236
  137        0.398838   1.002171
  138        0.425710   1.006016
  139        0.450052   1.012884
  140        0.540447   1.017389
  141        0.578704   0.898840
  142        0.621469   0.606879
  143        0.718972  -0.001241
  144        0.787318  -0.026248
  145        0.811588  -0.015461
  146        0.858044  -0.003438
  147        0.872876  -0.001893
  148        1.016624  -0.000000
  149        1.054051  -0.000000
  150        1.074692  -0.000000
  151        1.138752  -0.000000
  152        1.321516  -0.000000
  153        1.339541  -0.000000
  154        1.406091  -0.000000
  155        1.480650  -0.000000
  156        1.519162  -0.000000
  157        1.554229  -0.000000
  158        1.581787  -0.000000
  159        1.611467  -0.000000
  160        1.645298  -0.000000
  161        1.662404  -0.000000
  162        1.699898  -0.000000
  163        1.727169  -0.000000
  164        1.790727  -0.000000
  165        1.811676  -0.000000
  166        1.818766  -0.000000
  167        1.826828  -0.000000
  168        1.850958  -0.000000
  169        1.899602  -0.000000
  170        1.937031  -0.000000
  171        1.978011  -0.000000
  172        1.984273  -0.000000
  173        2.025011  -0.000000
  174        2.095532  -0.000000
  175        2.120589  -0.000000
  176        2.166191  -0.000000
  177        2.211273  -0.000000
  178        2.219640  -0.000000
  179        2.277895  -0.000000
  180        2.304530  -0.000000
  181        2.421505  -0.000000
  182        2.987037  -0.000000
  183        3.052080  -0.000000
  184        3.443918   0.000000

  0.3742002E-15  0.1111111E+00  0.1262379E-14  0.4444444E-01
    1      -13.781077   1.000000
    2      -12.654480   1.000000
    3      -12.605213   1.000000
    4      -12.573793   1.000000
    5      -11.767500   1.000000
    6      -11.526738   1.000000
    7      -11.479038   1.000000
    8      -11.463673   1.000000
    9      -11.307701   1.000000
   10      -11.164382   1.000000
   11      -11.047630   1.000000
   12      -10.949754   1.000000
   13      -10.903452   1.000000
   14      -10.552434   1.000000
   15      -10.400802   1.000000
   16      -10.181890   1.000000
   17       -9.996163   1.000000
   18       -9.951092   1.000000
   19       -9.737757   1.000000
   20       -9.622322   1.000000
   21       -9.544726   1.000000
   22       -9.451769   1.000000
   23       -9.358218   1.000000
   24       -9.273102   1.000000
   25       -8.775110   1.000000
   26       -8.706203   1.000000
   27       -8.648370   1.000000
   28       -8.352578   1.000000
   29       -8.331890   1.000000
   30       -8.155109   1.000000
   31       -7.859750   1.000000
   32       -7.834560   1.000000
   33       -7.699946   1.000000
   34       -7.351262   1.000000
   35       -7.294779   1.000000
   36       -7.207343   1.000000
   37       -7.102066   1.000000
   38       -6.898532   1.000000
   39       -6.815452   1.000000
   40       -6.801498   1.000000
   41       -6.572236   1.000000
   42       -6.541407   1.000000
   43       -6.520050   1.000000
   44       -6.454758   1.000000
   45       -6.409436   1.000000
   46       -6.274068   1.000000
   47       -6.232917   1.000000
   48       -6.149465   1.000000
   49       -6.006362   1.000000
   50       -5.983993   1.000000
   51       -5.784126   1.000000
   52       -5.697763   1.000000
   53       -5.624594   1.000000
   54       -5.500024   1.000000
   55       -5.485294   1.000000
   56       -5.452952   1.000000
   57       -5.371163   1.000000
   58       -5.297912   1.000000
   59       -5.196163   1.000000
   60       -5.127164   1.000000
   61       -5.083326   1.000000
   62       -5.041338   1.000000
   63       -5.017050   1.000000
   64       -4.757811   1.000000
   65       -4.634139   1.000000
   66       -4.623278   1.000000
   67       -4.524258   1.000000
   68       -4.487808   1.000000
   69       -4.426988   1.000000
   70       -4.375519   1.000000
   71       -4.289227   1.000000
   72       -4.227094   1.000000
   73       -4.138250   1.000000
   74       -4.104754   1.000000
   75       -4.098097   1.000000
   76       -4.049812   1.000000
   77       -4.014821   1.000000
   78       -4.009574   1.000000
   79       -3.914439   1.000000
   80       -3.902648   1.000000
   81       -3.898615   1.000000
   82       -3.885564   1.000000
   83       -3.780306   1.000000
   84       -3.768566   1.000000
   85       -3.660136   1.000000
   86       -3.620095   1.000000
   87       -3.581385   1.000000
   88       -3.560454   1.000000
   89       -3.514500   1.000000
   90       -3.473300   1.000000
   91       -3.373024   1.000000
   92       -3.359495   1.000000
   93       -3.327794   1.000000
   94       -3.311476   1.000000
   95       -3.126962   1.000000
   96       -2.923486   1.000000
   97       -2.795246   1.000000
   98       -2.753851   1.000000
   99       -2.726583   1.000000
  100       -2.656225   1.000000
  101       -2.612141   1.000000
  102       -2.483203   1.000000
  103       -2.414609   1.000000
  104       -2.410492   1.000000
  105       -2.337521   1.000000
  106       -2.286348   1.000000
  107       -2.170111   1.000000
  108       -2.102592   1.000000
  109       -2.073182   1.000000
  110       -2.052026   1.000000
  111       -1.958286   1.000000
  112       -1.927715   1.000000
  113       -1.833541   1.000000
  114       -1.802372   1.000000
  115       -1.725574   1.000000
  116       -1.646010   1.000000
  117       -1.575765   1.000000
  118       -1.545488   1.000000
  119       -1.516749   1.000000
  120       -1.396426   1.000000
  121       -1.375665   1.000000
  122       -1.019416   1.000000
  123       -0.945272   1.000000
  124       -0.815591   1.000000
  125       -0.735191   1.000000
  126       -0.677312   1.000000
  127       -0.575335   1.000000
  128       -0.443121   1.000000
  129       -0.440820   1.000000
  130       -0.181197   1.000000
  131       -0.135592   1.000000
  132       -0.113975   1.000000
  133        0.131645   1.000000
  134        0.172469   1.000000
  135        0.211327   1.000000
  136        0.285214   1.000005
  137        0.349011   1.000209
  138        0.394740   1.001829
  139        0.427833   1.006470
  140        0.456202   1.015208
  141        0.470189   1.021217
  142        0.529976   1.028983
  143        0.667043   0.238072
  144        0.696625   0.069453
  145        0.726974  -0.015892
  146        0.861390  -0.003019
  147        0.873261  -0.001862
  148        0.910284  -0.000334
  149        1.046770  -0.000000
  150        1.138035  -0.000000
  151        1.157448  -0.000000
  152        1.243274  -0.000000
  153        1.256591  -0.000000
  154        1.318288  -0.000000
  155        1.367980  -0.000000
  156        1.385667  -0.000000
  157        1.472361  -0.000000
  158        1.482583  -0.000000
  159        1.540252  -0.000000
  160        1.569287  -0.000000
  161        1.601223  -0.000000
  162        1.628543  -0.000000
  163        1.649798  -0.000000
  164        1.658885  -0.000000
  165        1.716462  -0.000000
  166        1.780635  -0.000000
  167        1.815226  -0.000000
  168        1.838866  -0.000000
  169        1.889884  -0.000000
  170        1.915785  -0.000000
  171        1.927044  -0.000000
  172        1.954144  -0.000000
  173        1.986768  -0.000000
  174        1.998815  -0.000000
  175        2.041781  -0.000000
  176        2.066592  -0.000000
  177        2.079972  -0.000000
  178        2.142098  -0.000000
  179        2.203147  -0.000000
  180        2.296291  -0.000000
  181        2.599726  -0.000000
  182        2.688099  -0.000000
  183        2.738584  -0.000000
  184        2.803277  -0.000000

  0.2000000E+00  0.1111111E+00  0.1262379E-14  0.4444444E-01
    1      -13.732863   1.000000
    2      -13.031440   1.000000
    3      -12.533429   1.000000
    4      -12.152760   1.000000
    5      -11.875763   1.000000
    6      -11.753106   1.000000
    7      -11.549112   1.000000
    8      -11.217602   1.000000
    9      -11.162000   1.000000
   10      -11.052419   1.000000
   11      -11.016177   1.000000
   12      -10.982300   1.000000
   13      -10.818291   1.000000
   14      -10.628982   1.000000
   15      -10.451032   1.000000
   16      -10.426088   1.000000
   17      -10.408558   1.000000
   18       -9.759963   1.000000
   19       -9.689881   1.000000
   20       -9.626170   1.000000
   21       -9.425569   1.000000
   22       -9.402519   1.000000
   23       -9.310689   1.000000
   24       -9.286495   1.000000
   25       -8.974728   1.000000
   26       -8.799284   1.000000
   27       -8.330039   1.000000
   28       -8.230243   1.000000
   29       -8.158446   1.000000
   30       -8.110992   1.000000
   31       -8.035924   1.000000
   32       -7.782896   1.000000
   33       -7.579764   1.000000
   34       -7.504271   1.000000
   35       -7.337951   1.000000
   36       -7.284585   1.000000
   37       -7.126504   1.000000
   38       -6.964586   1.000000
   39       -6.935846   1.000000
   40       -6.843634   1.000000
   41       -6.687604   1.000000
   42       -6.636216   1.000000
   43       -6.534416   1.000000
   44       -6.469206   1.000000
   45       -6.438260   1.000000
   46       -6.354602   1.000000
   47       -6.127290   1.000000
   48       -5.972513   1.000000
   49       -5.897093   1.000000
   50       -5.814364   1.000000
   51       -5.777028   1.000000
   52       -5.724839   1.000000
   53       -5.662896   1.000000
   54       -5.516863   1.000000
   55       -5.480109   1.000000
   56       -5.417281   1.000000
   57       -5.325398   1.000000
   58       -5.242025   1.000000
   59       -5.159909   1.000000
   60       -5.130298   1.000000
   61       -5.084797   1.000000
   62       -5.024595   1.000000
   63       -4.952085   1.000000
   64       -4.904486   1.000000
   65       -4.727091   1.000000
   66       -4.576858   1.000000
   67       -4.560754   1.000000
   68       -4.489256   1.000000
   69       -4.421046   1.000000
   70       -4.361120   1.000000
   71       -4.271892   1.000000
   72       -4.203354   1.000000
   73       -4.180398   1.000000
   74       -4.073883   1.000000
   75       -4.056669   1.000000
   76       -4.014702   1.000000
   77       -4.001538   1.000000
   78       -3.991936   1.000000
   79       -3.966377   1.000000
   80       -3.913270   1.000000
   81       -3.882479   1.000000
   82       -3.857140   1.000000
   83       -3.811831   1.000000
   84       -3.736562   1.000000
   85       -3.694960   1.000000
   86       -3.628034   1.000000
   87       -3.565631   1.000000
   88       -3.552764   1.000000
   89       -3.517149   1.000000
   90       -3.487406   1.000000
   91       -3.394120   1.000000
   92       -3.348320   1.000000
   93       -3.313062   1.000000
   94       -3.282484   1.000000
   95       -3.111984   1.000000
   96       -2.978663   1.000000
   97       -2.884402   1.000000
   98       -2.841992   1.000000
   99       -2.812621   1.000000
  100       -2.696663   1.000000
  101       -2.637151   1.000000
  102       -2.602330   1.000000
  103       -2.547387   1.000000
  104       -2.266839   1.000000
  105       -2.242035   1.000000
  106       -2.194186   1.000000
  107       -2.122120   1.000000
  108       -2.096688   1.000000
  109       -2.071443   1.000000
  110       -1.930223   1.000000
  111       -1.893786   1.000000
  112       -1.846407   1.000000
  113       -1.811563   1.000000
  114       -1.754816   1.000000
  115       -1.739708   1.000000
  116       -1.636664   1.000000
  117       -1.611052   1.000000
  118       -1.568836   1.000000
  119       -1.432278   1.000000
  120       -1.371433   1.000000
  121       -1.322435   1.000000
  122       -1.039215   1.000000
  123       -0.983240   1.000000
  124       -0.874657   1.000000
  125       -0.806837   1.000000
  126       -0.764524   1.000000
  127       -0.646015   1.000000
  128       -0.612839   1.000000
  129       -0.350428   1.000000
  130       -0.299267   1.000000
  131       -0.169192   1.000000
  132       -0.037104   1.000000
  133        0.080046   1.000000
  134        0.124207   1.000000
  135        0.169274   1.000000
  136        0.175035   1.000000
  137        0.283388   1.000004
  138        0.325787   1.000058
  139        0.419416   1.004815
  140        0.507234   1.035164
  141        0.579624   0.894253
  142        0.594850   0.806228
  143        0.637733   0.470230
  144        0.741645  -0.031220
  145        0.753787  -0.035323
  146        0.829440  -0.009299
  147        0.947894  -0.000043
  148        0.990375  -0.000003
  149        1.006116  -0.000001
  150        1.109068  -0.000000
  151        1.139774  -0.000000
  152        1.279738  -0.000000
  153        1.352232  -0.000000
  154        1.376111  -0.000000
  155        1.430527  -0.000000
  156        1.473351  -0.000000
  157        1.484273  -0.000000