 running on   72 total cores
 distrk:  each k-point on   72 cores,    1 groups
 distr:  one band on    9 cores,    8 groups
 using from now: INCAR     
 vasp.5.4.4.18Apr17-6-g9f103f2a35 (build Dec  7 2020 12:43:57) complex           
 POSCAR found type information on POSCAR  Mo V  B  H 
 POSCAR found :  4 types and      75 ions
 scaLAPACK will be used

 ----------------------------------------------------------------------------- 
|                                                                             |
|  ADVICE TO THIS USER RUNNING 'VASP/VAMP'   (HEAR YOUR MASTER'S VOICE ...):  |
|                                                                             |
|      You enforced a specific xc-type in the INCAR file,                     |
|      a different type was found on the POTCAR file                          |
|          I HOPE YOU KNOW, WHAT YOU ARE  DOING                               |
|                                                                             |
 ----------------------------------------------------------------------------- 

 LDA part: xc-table for Pade appr. of Perdew
 POSCAR, INCAR and KPOINTS ok, starting setup
 resort distribution
 resort distribution
 resort distribution
 resort distribution
 resort distribution
 resort distribution
 resort distribution
 resort distribution
 resort distribution
 resort distribution
 resort distribution
 resort distribution
 resort distribution
 resort distribution
 resort distribution
 resort distribution
 resort distribution
 resort distribution
 resort distribution
 resort distribution
 resort distribution
 resort distribution
 resort distribution
 resort distribution
 resort distribution
 resort distribution
 resort distribution
 resort distribution
 resort distribution
 resort distribution
 resort distribution
 resort distribution
 resort distribution
 resort distribution
 resort distribution
 resort distribution
 resort distribution
 resort distribution
 resort distribution
 resort distribution
 resort distribution
 resort distribution
 resort distribution
 resort distribution
 resort distribution
 resort distribution
 resort distribution
 resort distribution
 resort distribution
 resort distribution
 resort distribution
 resort distribution
 resort distribution
 resort distribution
 resort distribution
 resort distribution
 resort distribution
 resort distribution
 resort distribution
 resort distribution
 resort distribution
 resort distribution
 resort distribution
 resort distribution
 resort distribution
 resort distribution
 resort distribution
 resort distribution
 resort distribution
 resort distribution
 resort distribution
 resort distribution
 FFT: planning ...
 WAVECAR not read
 augmentation electrons   285.06516021483048     
 soft         electrons   0.0000000000000000     
 augmentation electrons   285.06516021483048     
 soft         electrons   0.0000000000000000     
 augmentation electrons   285.06516021483048     
 soft         electrons   0.0000000000000000     
 augmentation electrons   285.06516021483048     
 soft         electrons   0.0000000000000000     
 augmentation electrons   285.06516021483048     
 soft         electrons   0.0000000000000000     
 augmentation electrons   285.06516021483048     
 soft         electrons   0.0000000000000000     
 augmentation electrons   285.06516021483048     
 soft         electrons   0.0000000000000000     
 augmentation electrons   285.06516021483048     
 soft         electrons   0.0000000000000000     
 augmentation electrons   285.06516021483048     
 soft         electrons   0.0000000000000000     
 augmentation electrons   285.06516021483048     
 soft         electrons   0.0000000000000000     
 augmentation electrons   285.06516021483048     
 soft         electrons   0.0000000000000000     
 augmentation electrons   285.06516021483048     
 soft         electrons   0.0000000000000000     
 augmentation electrons   285.06516021483048     
 soft         electrons   0.0000000000000000     
 augmentation electrons   285.06516021483048     
 soft         electrons   0.0000000000000000     
 augmentation electrons   285.06516021483048     
 soft         electrons   0.0000000000000000     
 augmentation electrons   285.06516021483048     
 soft         electrons   0.0000000000000000     
 augmentation electrons   285.06516021483048     
 soft         electrons   0.0000000000000000     
 augmentation electrons   285.06516021483048     
 soft         electrons   0.0000000000000000     
 augmentation electrons   285.06516021483048     
 soft         electrons   0.0000000000000000     
 augmentation electrons   285.06516021483048     
 soft         electrons   0.0000000000000000     
 augmentation electrons   285.06516021483048     
 soft         electrons   0.0000000000000000     
 augmentation electrons   285.06516021483048     
 soft         electrons   0.0000000000000000     
 augmentation electrons   285.06516021483048     
 soft         electrons   0.0000000000000000     
 augmentation electrons   285.06516021483048     
 soft         electrons   0.0000000000000000     
 augmentation electrons   285.06516021483048     
 soft         electrons   0.0000000000000000     
 augmentation electrons   285.06516021483048     
 soft         electrons   0.0000000000000000     
 augmentation electrons   285.06516021483048     
 soft         electrons   0.0000000000000000     
 augmentation electrons   285.06516021483048     
 soft         electrons   0.0000000000000000     
 augmentation electrons   285.06516021483048     
 soft         electrons   0.0000000000000000     
 augmentation electrons   285.06516021483048     
 soft         electrons   0.0000000000000000     
 augmentation electrons   285.06516021483048     
 soft         electrons   0.0000000000000000     
 augmentation electrons   285.06516021483048     
 soft         electrons   0.0000000000000000     
 augmentation electrons   285.06516021483048     
 soft         electrons   0.0000000000000000     
 augmentation electrons   285.06516021483048     
 soft         electrons   0.0000000000000000     
 augmentation electrons   285.06516021483048     
 soft         electrons   0.0000000000000000     
 augmentation electrons   285.06516021483048     
 soft         electrons   0.0000000000000000     
 augmentation electrons   285.06516021483048     
 soft         electrons   0.0000000000000000     
 augmentation electrons   285.06516021483048     
 soft         electrons   0.0000000000000000     
 augmentation electrons   285.06516021483048     
 soft         electrons   0.0000000000000000     
 augmentation electrons   285.06516021483048     
 soft         electrons   0.0000000000000000     
 augmentation electrons   285.06516021483048     
 soft         electrons   0.0000000000000000     
 augmentation electrons   285.06516021483048     
 soft         electrons   0.0000000000000000     
 augmentation electrons   285.06516021483048     
 soft         electrons   0.0000000000000000     
 augmentation electrons   285.06516021483048     
 soft         electrons   0.0000000000000000     
 augmentation electrons   285.06516021483048     
 soft         electrons   0.0000000000000000     
 augmentation electrons   285.06516021483048     
 soft         electrons   0.0000000000000000     
 augmentation electrons   285.06516021483048     
 soft         electrons   0.0000000000000000     
 augmentation electrons   285.06516021483048     
 soft         electrons   0.0000000000000000     
 augmentation electrons   285.06516021483048     
 soft         electrons   0.0000000000000000     
 augmentation electrons   285.06516021483048     
 soft         electrons   0.0000000000000000     
 augmentation electrons   285.06516021483048     
 soft         electrons   0.0000000000000000     
 augmentation electrons   285.06516021483048     
 soft         electrons   0.0000000000000000     
 augmentation electrons   285.06516021483048     
 soft         electrons   0.0000000000000000     
 augmentation electrons   285.06516021483048     
 soft         electrons   0.0000000000000000     
 augmentation electrons   285.06516021483048     
 soft         electrons   0.0000000000000000     
 augmentation electrons   285.06516021483048     
 soft         electrons   0.0000000000000000     
 augmentation electrons   285.06516021483048     
 soft         electrons   0.0000000000000000     
 augmentation electrons   285.06516021483048     
 soft         electrons   0.0000000000000000     
 augmentation electrons   285.06516021483048     
 soft         electrons   0.0000000000000000     
 augmentation electrons   285.06516021483048     
 soft         electrons   0.0000000000000000     
 augmentation electrons   285.06516021483048     
 soft         electrons   0.0000000000000000     
 augmentation electrons   285.06516021483048     
 soft         electrons   0.0000000000000000     
 augmentation electrons   285.06516021483048     
 soft         electrons   0.0000000000000000     
 augmentation electrons   285.06516021483048     
 soft         electrons   0.0000000000000000     
 augmentation electrons   285.06516021483048     
 soft         electrons   0.0000000000000000     
 augmentation electrons   285.06516021483048     
 soft         electrons   0.0000000000000000     
 augmentation electrons   285.06516021483048     
 soft         electrons   0.0000000000000000     
 augmentation electrons   285.06516021483048     
 soft         electrons   0.0000000000000000     
 augmentation electrons   285.06516021483048     
 soft         electrons   0.0000000000000000     
 augmentation electrons   285.06516021483048     
 soft         electrons   0.0000000000000000     
 augmentation electrons   285.06516021483048     
 soft         electrons   0.0000000000000000     
 augmentation electrons   285.06516021483048     
 soft         electrons   0.0000000000000000     
 total        electrons   285.06516021483048     
 total        electrons   285.06516021483048     
 total        electrons   285.06516021483048     
 total        electrons   285.06516021483048     
 total        electrons   285.06516021483048     
 total        electrons   285.06516021483048     
 total        electrons   285.06516021483048     
 total        electrons   285.06516021483048     
 total        electrons   285.06516021483048     
 total        electrons   285.06516021483048     
 total        electrons   285.06516021483048     
 total        electrons   285.06516021483048     
 total        electrons   285.06516021483048     
 total        electrons   285.06516021483048     
 total        electrons   285.06516021483048     
 total        electrons   285.06516021483048     
 total        electrons   285.06516021483048     
 total        electrons   285.06516021483048     
 total        electrons   285.06516021483048     
 total        electrons   285.06516021483048     
 total        electrons   285.06516021483048     
 total        electrons   285.06516021483048     
 total        electrons   285.06516021483048     
 total        electrons   285.06516021483048     
 total        electrons   285.06516021483048     
 total        electrons   285.06516021483048     
 total        electrons   285.06516021483048     
 total        electrons   285.06516021483048     
 total        electrons   285.06516021483048     
 total        electrons   285.06516021483048     
 total        electrons   285.06516021483048     
 total        electrons   285.06516021483048     
 total        electrons   285.06516021483048     
 total        electrons   285.06516021483048     
 total        electrons   285.06516021483048     
 total        electrons   285.06516021483048     
 total        electrons   285.06516021483048     
 total        electrons   285.06516021483048     
 total        electrons   285.06516021483048     
 total        electrons   285.06516021483048     
 total        electrons   285.06516021483048     
 total        electrons   285.06516021483048     
 total        electrons   285.06516021483048     
 total        electrons   285.06516021483048     
 total        electrons   285.06516021483048     
 total        electrons   285.06516021483048     
 total        electrons   285.06516021483048     
 total        electrons   285.06516021483048     
 total        electrons   285.06516021483048     
 total        electrons   285.06516021483048     
 total        electrons   285.06516021483048     
 total        electrons   285.06516021483048     
 total        electrons   285.06516021483048     
 total        electrons   285.06516021483048     
 total        electrons   285.06516021483048     
 total        electrons   285.06516021483048     
 total        electrons   285.06516021483048     
 total        electrons   285.06516021483048     
 total        electrons   285.06516021483048     
 total        electrons   285.06516021483048     
 total        electrons   285.06516021483048     
 total        electrons   285.06516021483048     
 total        electrons   285.06516021483048     
 total        electrons   285.06516021483048     
 total        electrons   285.06516021483048     
 total        electrons   285.06516021483048     
 total        electrons   285.06516021483048     
 total        electrons   285.06516021483048     
 total        electrons   285.06516021483048     
 total        electrons   285.06516021483048     
 total        electrons   285.06516021483048     
 total        electrons   285.06516021483048     
 augmentation electrons   1284.9953543078657     
 soft         electrons   0.0000000000000000     
 augmentation electrons   1284.9953543078657     
 soft         electrons   0.0000000000000000     
 augmentation electrons   1284.9953543078657     
 soft         electrons   0.0000000000000000     
 augmentation electrons   1284.9953543078657     
 soft         electrons   0.0000000000000000     
 augmentation electrons   1284.9953543078657     
 soft         electrons   0.0000000000000000     
 augmentation electrons   1284.9953543078657     
 soft         electrons   0.0000000000000000     
 augmentation electrons   1284.9953543078657     
 soft         electrons   0.0000000000000000     
 augmentation electrons   1284.9953543078657     
 soft         electrons   0.0000000000000000     
 augmentation electrons   1284.9953543078657     
 soft         electrons   0.0000000000000000     
 augmentation electrons   1284.9953543078657     
 soft         electrons   0.0000000000000000     
 augmentation electrons   1284.9953543078657     
 soft         electrons   0.0000000000000000     
 augmentation electrons   1284.9953543078657     
 soft         electrons   0.0000000000000000     
 augmentation electrons   1284.9953543078657     
 soft         electrons   0.0000000000000000     
 augmentation electrons   1284.9953543078657     
 soft         electrons   0.0000000000000000     
 augmentation electrons   1284.9953543078657     
 soft         electrons   0.0000000000000000     
 augmentation electrons   1284.9953543078657     
 soft         electrons   0.0000000000000000     
 augmentation electrons   1284.9953543078657     
 soft         electrons   0.0000000000000000     
 augmentation electrons   1284.9953543078657     
 soft         electrons   0.0000000000000000     
 augmentation electrons   1284.9953543078657     
 soft         electrons   0.0000000000000000     
 augmentation electrons   1284.9953543078657     
 soft         electrons   0.0000000000000000     
 augmentation electrons   1284.9953543078657     
 soft         electrons   0.0000000000000000     
 augmentation electrons   1284.9953543078657     
 soft         electrons   0.0000000000000000     
 augmentation electrons   1284.9953543078657     
 soft         electrons   0.0000000000000000     
 augmentation electrons   1284.9953543078657     
 soft         electrons   0.0000000000000000     
 augmentation electrons   1284.9953543078657     
 soft         electrons   0.0000000000000000     
 augmentation electrons   1284.9953543078657     
 soft         electrons   0.0000000000000000     
 augmentation electrons   1284.9953543078657     
 soft         electrons   0.0000000000000000     
 augmentation electrons   1284.9953543078657     
 soft         electrons   0.0000000000000000     
 augmentation electrons   1284.9953543078657     
 soft         electrons   0.0000000000000000     
 augmentation electrons   1284.9953543078657     
 soft         electrons   0.0000000000000000     
 augmentation electrons   1284.9953543078657     
 soft         electrons   0.0000000000000000     
 augmentation electrons   1284.9953543078657     
 soft         electrons   0.0000000000000000     
 augmentation electrons   1284.9953543078657     
 soft         electrons   0.0000000000000000     
 augmentation electrons   1284.9953543078657     
 soft         electrons   0.0000000000000000     
 augmentation electrons   1284.9953543078657     
 soft         electrons   0.0000000000000000     
 augmentation electrons   1284.9953543078657     
 soft         electrons   0.0000000000000000     
 augmentation electrons   1284.9953543078657     
 soft         electrons   0.0000000000000000     
 augmentation electrons   1284.9953543078657     
 soft         electrons   0.0000000000000000     
 augmentation electrons   1284.9953543078657     
 soft         electrons   0.0000000000000000     
 augmentation electrons   1284.9953543078657     
 soft         electrons   0.0000000000000000     
 augmentation electrons   1284.9953543078657     
 soft         electrons   0.0000000000000000     
 augmentation electrons   1284.9953543078657     
 soft         electrons   0.0000000000000000     
 augmentation electrons   1284.9953543078657     
 soft         electrons   0.0000000000000000     
 augmentation electrons   1284.9953543078657     
 soft         electrons   0.0000000000000000     
 augmentation electrons   1284.9953543078657     
 soft         electrons   0.0000000000000000     
 augmentation electrons   1284.9953543078657     
 soft         electrons   0.0000000000000000     
 augmentation electrons   1284.9953543078657     
 soft         electrons   0.0000000000000000     
 augmentation electrons   1284.9953543078657     
 soft         electrons   0.0000000000000000     
 augmentation electrons   1284.9953543078657     
 soft         electrons   0.0000000000000000     
 augmentation electrons   1284.9953543078657     
 soft         electrons   0.0000000000000000     
 augmentation electrons   1284.9953543078657     
 soft         electrons   0.0000000000000000     
 augmentation electrons   1284.9953543078657     
 soft         electrons   0.0000000000000000     
 augmentation electrons   1284.9953543078657     
 soft         electrons   0.0000000000000000     
 augmentation electrons   1284.9953543078657     
 soft         electrons   0.0000000000000000     
 augmentation electrons   1284.9953543078657     
 soft         electrons   0.0000000000000000     
 augmentation electrons   1284.9953543078657     
 soft         electrons   0.0000000000000000     
 augmentation electrons   1284.9953543078657     
 soft         electrons   0.0000000000000000     
 augmentation electrons   1284.9953543078657     
 soft         electrons   0.0000000000000000     
 augmentation electrons   1284.9953543078657     
 soft         electrons   0.0000000000000000     
 augmentation electrons   1284.9953543078657     
 soft         electrons   0.0000000000000000     
 augmentation electrons   1284.9953543078657     
 soft         electrons   0.0000000000000000     
 augmentation electrons   1284.9953543078657     
 soft         electrons   0.0000000000000000     
 augmentation electrons   1284.9953543078657     
 soft         electrons   0.0000000000000000     
 augmentation electrons   1284.9953543078657     
 soft         electrons   0.0000000000000000     
 augmentation electrons   1284.9953543078657     
 soft         electrons   0.0000000000000000     
 augmentation electrons   1284.9953543078657     
 soft         electrons   0.0000000000000000     
 augmentation electrons   1284.9953543078657     
 soft         electrons   0.0000000000000000     
 augmentation electrons   1284.9953543078657     
 soft         electrons   0.0000000000000000     
 augmentation electrons   1284.9953543078657     
 soft         electrons   0.0000000000000000     
 augmentation electrons   1284.9953543078657     
 soft         electrons   0.0000000000000000     
 augmentation electrons   1284.9953543078657     
 soft         electrons   0.0000000000000000     
 augmentation electrons   1284.9953543078657     
 soft         electrons   0.0000000000000000     
 total        electrons   1284.9953543078657     
 total        electrons   1284.9953543078657     
 total        electrons   1284.9953543078657     
 total        electrons   1284.9953543078657     
 total        electrons   1284.9953543078657     
 total        electrons   1284.9953543078657     
 total        electrons   1284.9953543078657     
 total        electrons   1284.9953543078657     
 total        electrons   1284.9953543078657     
 total        electrons   1284.9953543078657     
 total        electrons   1284.9953543078657     
 total        electrons   1284.9953543078657     
 total        electrons   1284.9953543078657     
 total        electrons   1284.9953543078657     
 total        electrons   1284.9953543078657     
 total        electrons   1284.9953543078657     
 total        electrons   1284.9953543078657     
 total        electrons   1284.9953543078657     
 total        electrons   1284.9953543078657     
 total        electrons   1284.9953543078657     
 total        electrons   1284.9953543078657     
 total        electrons   1284.9953543078657     
 total        electrons   1284.9953543078657     
 total        electrons   1284.9953543078657     
 total        electrons   1284.9953543078657     
 total        electrons   1284.9953543078657     
 total        electrons   1284.9953543078657     
 total        electrons   1284.9953543078657     
 total        electrons   1284.9953543078657     
 total        electrons   1284.9953543078657     
 total        electrons   1284.9953543078657     
 total        electrons   1284.9953543078657     
 total        electrons   1284.9953543078657     
 total        electrons   1284.9953543078657     
 total        electrons   1284.9953543078657     
 total        electrons   1284.9953543078657     
 total        electrons   1284.9953543078657     
 total        electrons   1284.9953543078657     
 total        electrons   1284.9953543078657     
 total        electrons   1284.9953543078657     
 total        electrons   1284.9953543078657     
 total        electrons   1284.9953543078657     
 total        electrons   1284.9953543078657     
 total        electrons   1284.9953543078657     
 total        electrons   1284.9953543078657     
 total        electrons   1284.9953543078657     
 total        electrons   1284.9953543078657     
 total        electrons   1284.9953543078657     
 total        electrons   1284.9953543078657     
 total        electrons   1284.9953543078657     
 total        electrons   1284.9953543078657     
 total        electrons   1284.9953543078657     
 total        electrons   1284.9953543078657     
 total        electrons   1284.9953543078657     
 total        electrons   1284.9953543078657     
 total        electrons   1284.9953543078657     
 total        electrons   1284.9953543078657     
 total        electrons   1284.9953543078657     
 total        electrons   1284.9953543078657     
 total        electrons   1284.9953543078657     
 total        electrons   1284.9953543078657     
 total        electrons   1284.9953543078657     
 total        electrons   1284.9953543078657     
 total        electrons   1284.9953543078657     
 total        electrons   1284.9953543078657     
 total        electrons   1284.9953543078657     
 total        electrons   1284.9953543078657     
 total        electrons   1284.9953543078657     
 total        electrons   1284.9953543078657     
 total        electrons   1284.9953543078657     
 total        electrons   1284.9953543078657     
 total        electrons   1284.9953543078657     
 entering main loop
       N       E                     dE             d eps       ncg     rms          rms(c)
DAV:   1     0.250100116217E+04    0.25010E+04   -0.10351E+05  8464   0.127E+03
DAV:   2    -0.184048595460E+03   -0.26850E+04   -0.24972E+04  9592   0.315E+02
DAV:   3    -0.628532927099E+03   -0.44448E+03   -0.42173E+03 11936   0.147E+02
DAV:   4    -0.666620624512E+03   -0.38088E+02   -0.36368E+02 13704   0.471E+01
DAV:   5    -0.669091232319E+03   -0.24706E+01   -0.23785E+01 14400   0.113E+01    0.146E+02
RMM:   6    -0.618797395770E+03    0.50294E+02   -0.11085E+03 13399   0.878E+01    0.701E+01
RMM:   7    -0.720347502661E+03   -0.10155E+03   -0.38427E+02 11197   0.541E+01    0.565E+01
RMM:   8    -0.632551751651E+03    0.87796E+02   -0.21803E+02 12120   0.268E+01    0.445E+01
RMM:   9    -0.580184122164E+03    0.52368E+02   -0.43615E+01 11820   0.172E+01    0.266E+01
RMM:  10    -0.569565583489E+03    0.10619E+02   -0.42050E+01 10964   0.167E+01    0.192E+01
RMM:  11    -0.567795755694E+03    0.17698E+01   -0.83382E+00 10844   0.805E+00    0.155E+01
RMM:  12    -0.567933733539E+03   -0.13798E+00   -0.26636E+00 13257   0.216E+00    0.141E+01
RMM:  13    -0.567820720666E+03    0.11301E+00   -0.93213E-01 12869   0.191E+00    0.126E+01
RMM:  14    -0.568120899735E+03   -0.30018E+00   -0.56932E+00 10016   0.748E+00    0.970E+00
RMM:  15    -0.566998103671E+03    0.11228E+01   -0.19168E+00  9178   0.508E+00    0.437E+00
RMM:  16    -0.566827179595E+03    0.17092E+00   -0.76405E-01 13029   0.158E+00    0.278E+00
RMM:  17    -0.566781965333E+03    0.45214E-01   -0.28280E-01 12013   0.110E+00    0.233E+00
RMM:  18    -0.566749780917E+03    0.32184E-01   -0.18438E-01 12942   0.821E-01    0.158E+00
RMM:  19    -0.566731839303E+03    0.17942E-01   -0.14783E-01 12356   0.861E-01    0.122E+00
RMM:  20    -0.566719140295E+03    0.12699E-01   -0.54309E-02 11274   0.624E-01    0.739E-01
RMM:  21    -0.566711989000E+03    0.71513E-02   -0.25602E-02 11933   0.365E-01    0.292E-01
RMM:  22    -0.566711872054E+03    0.11695E-03   -0.11672E-02 11853   0.219E-01    0.342E-01
RMM:  23    -0.566710516168E+03    0.13559E-02   -0.69999E-03 11887   0.178E-01    0.273E-01
RMM:  24    -0.566709405204E+03    0.11110E-02   -0.27933E-03 10401   0.148E-01    0.118E-01
RMM:  25    -0.566709791947E+03   -0.38674E-03   -0.34796E-03 11418   0.138E-01    0.206E-01
RMM:  26    -0.566709608351E+03    0.18360E-03   -0.71934E-04 10081   0.864E-02    0.685E-02
RMM:  27    -0.566710311435E+03   -0.70308E-03   -0.94063E-04 11753   0.543E-02    0.479E-02
RMM:  28    -0.566710773439E+03   -0.46200E-03   -0.54222E-04 11918   0.442E-02    0.312E-02
RMM:  29    -0.566711001006E+03   -0.22757E-03   -0.19651E-04 12670   0.225E-02    0.404E-02
RMM:  30    -0.566711122186E+03   -0.12118E-03   -0.69304E-05 10520   0.216E-02    0.206E-02
RMM:  31    -0.566711179853E+03   -0.57667E-04   -0.12392E-04 12240   0.182E-02    0.282E-02
RMM:  32    -0.566711193941E+03   -0.14088E-04   -0.24796E-05  8784   0.112E-02    0.122E-02
RMM:  33    -0.566711312784E+03   -0.11884E-03   -0.20265E-05 10390   0.702E-03    0.770E-03
RMM:  34    -0.566711487494E+03   -0.17471E-03   -0.32302E-05  9274   0.153E-02    0.232E-02
RMM:  35    -0.566711659057E+03   -0.17156E-03   -0.19748E-05  8375   0.123E-02    0.525E-03
RMM:  36    -0.566711782730E+03   -0.12367E-03   -0.17021E-05  8123   0.407E-03    0.456E-03
RMM:  37    -0.566711838953E+03   -0.56223E-04   -0.73497E-06  7776   0.491E-03    0.372E-03
RMM:  38    -0.566711859129E+03   -0.20176E-04   -0.26817E-06  7330   0.347E-03    0.244E-03
RMM:  39    -0.566711871188E+03   -0.12059E-04   -0.14250E-06  6753   0.264E-03    0.141E-03
RMM:  40    -0.566711875548E+03   -0.43603E-05   -0.55538E-07  5918   0.195E-03    0.151E-03
RMM:  41    -0.566711879783E+03   -0.42346E-05   -0.60798E-07  5939   0.203E-03    0.105E-03
RMM:  42    -0.566711880806E+03   -0.10236E-05   -0.28289E-07  4621   0.126E-03    0.310E-04
RMM:  43    -0.566711881712E+03   -0.90573E-06   -0.19384E-07  4148   0.961E-04
   1 F= -.56671188E+03 E0= -.56671239E+03  d E =0.152978E-02
 augmentation electrons   31.570506842915069     
 soft         electrons   253.55741300088562     
 total        electrons   285.12791984380067     
 augmentation electrons   31.570506842915069     
 soft         electrons   253.55741300088562     
 augmentation electrons   31.570506842915069     
 soft         electrons   253.55741300088562     
 total        electrons   285.12791984380067     
 augmentation electrons   31.570506842915069     
 soft         electrons   253.55741300088562     
 total        electrons   285.12791984380067     
 augmentation electrons   31.570506842915069     
 soft         electrons   253.55741300088562     
 total        electrons   285.12791984380067     
 augmentation electrons   31.570506842915069     
 soft         electrons   253.55741300088562     
 total        electrons   285.12791984380067     
 augmentation electrons   31.570506842915069     
 soft         electrons   253.55741300088562     
 total        electrons   285.12791984380067     
 augmentation electrons   31.570506842915069     
 soft         electrons   253.55741300088562     
 total        electrons   285.12791984380067     
 augmentation electrons   31.570506842915069     
 soft         electrons   253.55741300088562     
 total        electrons   285.12791984380067     
 augmentation electrons   31.570506842915069     
 soft         electrons   253.55741300088562     
 augmentation electrons   31.570506842915069     
 soft         electrons   253.55741300088562     
 total        electrons   285.12791984380067     
 augmentation electrons   31.570506842915069     
 soft         electrons   253.55741300088562     
 total        electrons   285.12791984380067     
 augmentation electrons   31.570506842915069     
 soft         electrons   253.55741300088562     
 total        electrons   285.12791984380067     
 augmentation electrons   31.570506842915069     
 soft         electrons   253.55741300088562     
 total        electrons   285.12791984380067     
 augmentation electrons   31.570506842915069     
 soft         electrons   253.55741300088562     
 total        electrons   285.12791984380067     
 augmentation electrons   31.570506842915069     
 soft         electrons   253.55741300088562     
 total        electrons   285.12791984380067     
 augmentation electrons   31.570506842915069     
 soft         electrons   253.55741300088562     
 total        electrons   285.12791984380067     
 augmentation electrons   31.570506842915069     
 soft         electrons   253.55741300088562     
 total        electrons   285.12791984380067     
 augmentation electrons   31.570506842915069     
 soft         electrons   253.55741300088562     
 total        electrons   285.12791984380067     
 augmentation electrons   31.570506842915069     
 soft         electrons   253.55741300088562     
 augmentation electrons   31.570506842915069     
 soft         electrons   253.55741300088562     
 augmentation electrons   31.570506842915069     
 soft         electrons   253.55741300088562     
 total        electrons   285.12791984380067     
 augmentation electrons   31.570506842915069     
 soft         electrons   253.55741300088562     
 total        electrons   285.12791984380067     
 augmentation electrons   31.570506842915069     
 soft         electrons   253.55741300088562     
 total        electrons   285.12791984380067     
 augmentation electrons   31.570506842915069     
 soft         electrons   253.55741300088562     
 total        electrons   285.12791984380067     
 augmentation electrons   31.570506842915069     
 soft         electrons   253.55741300088562     
 total        electrons   285.12791984380067     
 augmentation electrons   31.570506842915069     
 soft         electrons   253.55741300088562     
 total        electrons   285.12791984380067     
 augmentation electrons   31.570506842915069     
 soft         electrons   253.55741300088562     
 total        electrons   285.12791984380067     
 augmentation electrons   31.570506842915069     
 soft         electrons   253.55741300088562     
 total        electrons   285.12791984380067     
 augmentation electrons   31.570506842915069     
 soft         electrons   253.55741300088562     
 total        electrons   285.12791984380067     
 augmentation electrons   31.570506842915069     
 soft         electrons   253.55741300088562     
 total        electrons   285.12791984380067     
 augmentation electrons   31.570506842915069     
 soft         electrons   253.55741300088562     
 total        electrons   285.12791984380067     
 augmentation electrons   31.570506842915069     
 soft         electrons   253.55741300088562     
 total        electrons   285.12791984380067     
 augmentation electrons   31.570506842915069     
 soft         electrons   253.55741300088562     
 total        electrons   285.12791984380067     
 augmentation electrons   31.570506842915069     
 soft         electrons   253.55741300088562     
 total        electrons   285.12791984380067     
 augmentation electrons   31.570506842915069     
 soft         electrons   253.55741300088562     
 total        electrons   285.12791984380067     
 augmentation electrons   31.570506842915069     
 soft         electrons   253.55741300088562     
 total        electrons   285.12791984380067     
 augmentation electrons   31.570506842915069     
 soft         electrons   253.55741300088562     
 total        electrons   285.12791984380067     
 augmentation electrons   31.570506842915069     
 soft         electrons   253.55741300088562     
 total        electrons   285.12791984380067     
 augmentation electrons   31.570506842915069     
 soft         electrons   253.55741300088562     
 total        electrons   285.12791984380067     
 augmentation electrons   31.570506842915069     
 soft         electrons   253.55741300088562     
 total        electrons   285.12791984380067     
 augmentation electrons   31.570506842915069     
 soft         electrons   253.55741300088562     
 total        electrons   285.12791984380067     
 augmentation electrons   31.570506842915069     
 soft         electrons   253.55741300088562     
 total        electrons   285.12791984380067     
 augmentation electrons   31.570506842915069     
 soft         electrons   253.55741300088562     
 total        electrons   285.12791984380067     
 augmentation electrons   31.570506842915069     
 soft         electrons   253.55741300088562     
 total        electrons   285.12791984380067     
 augmentation electrons   31.570506842915069     
 soft         electrons   253.55741300088562     
 total        electrons   285.12791984380067     
 augmentation electrons   31.570506842915069     
 soft         electrons   253.55741300088562     
 total        electrons   285.12791984380067     
 augmentation electrons   31.570506842915069     
 soft         electrons   253.55741300088562     
 augmentation electrons   31.570506842915069     
 soft         electrons   253.55741300088562     
 total        electrons   285.12791984380067     
 augmentation electrons   31.570506842915069     
 soft         electrons   253.55741300088562     
 total        electrons   285.12791984380067     
 augmentation electrons   31.570506842915069     
 soft         electrons   253.55741300088562     
 total        electrons   285.12791984380067     
 augmentation electrons   31.570506842915069     
 soft         electrons   253.55741300088562     
 total        electrons   285.12791984380067     
 augmentation electrons   31.570506842915069     
 soft         electrons   253.55741300088562     
 augmentation electrons   31.570506842915069     
 soft         electrons   253.55741300088562     
 total        electrons   285.12791984380067     
 augmentation electrons   31.570506842915069     
 soft         electrons   253.55741300088562     
 total        electrons   285.12791984380067     
 augmentation electrons   31.570506842915069     
 soft         electrons   253.55741300088562     
 total        electrons   285.12791984380067     
 augmentation electrons   31.570506842915069     
 soft         electrons   253.55741300088562     
 total        electrons   285.12791984380067     
 augmentation electrons   31.570506842915069     
 soft         electrons   253.55741300088562     
 total        electrons   285.12791984380067     
 augmentation electrons   31.570506842915069     
 soft         electrons   253.55741300088562     
 total        electrons   285.12791984380067     
 augmentation electrons   31.570506842915069     
 soft         electrons   253.55741300088562     
 augmentation electrons   31.570506842915069     
 soft         electrons   253.55741300088562     
 total        electrons   285.12791984380067     
 augmentation electrons   31.570506842915069     
 soft         electrons   253.55741300088562     
 total        electrons   285.12791984380067     
 augmentation electrons   31.570506842915069     
 soft         electrons   253.55741300088562     
 total        electrons   285.12791984380067     
 augmentation electrons   31.570506842915069     
 soft         electrons   253.55741300088562     
 augmentation electrons   31.570506842915069     
 soft         electrons   253.55741300088562     
 total        electrons   285.12791984380067     
 augmentation electrons   31.570506842915069     
 soft         electrons   253.55741300088562     
 total        electrons   285.12791984380067     
 augmentation electrons   31.570506842915069     
 soft         electrons   253.55741300088562     
 total        electrons   285.12791984380067     
 augmentation electrons   31.570506842915069     
 soft         electrons   253.55741300088562     
 total        electrons   285.12791984380067     
 augmentation electrons   31.570506842915069     
 soft         electrons   253.55741300088562     
 total        electrons   285.12791984380067     
 augmentation electrons   31.570506842915069     
 soft         electrons   253.55741300088562     
 total        electrons   285.12791984380067     
 augmentation electrons   31.570506842915069     
 soft         electrons   253.55741300088562     
 augmentation electrons   31.570506842915069     
 soft         electrons   253.55741300088562     
 total        electrons   285.12791984380067     
 total        electrons   285.12791984380067     
 total        electrons   285.12791984380067     
 total        electrons   285.12791984380067     
 total        electrons   285.12791984380067     
 total        electrons   285.12791984380067     
 total        electrons   285.12791984380067     
 total        electrons   285.12791984380067     
 total        electrons   285.12791984380067     
 total        electrons   285.12791984380067     
Note: The following floating-point exceptions are signalling: IEEE_OVERFLOW_FLAG
Note: The following floating-point exceptions are signalling: IEEE_OVERFLOW_FLAG
Note: The following floating-point exceptions are signalling: IEEE_OVERFLOW_FLAG
Note: The following floating-point exceptions are signalling: IEEE_OVERFLOW_FLAG
Note: The following floating-point exceptions are signalling: IEEE_OVERFLOW_FLAG
Note: The following floating-point exceptions are signalling: IEEE_INVALID_FLAG IEEE_OVERFLOW_FLAG
Note: The following floating-point exceptions are signalling: IEEE_OVERFLOW_FLAG
Note: The following floating-point exceptions are signalling: IEEE_OVERFLOW_FLAG
Note: The following floating-point exceptions are signalling: IEEE_OVERFLOW_FLAG
Note: The following floating-point exceptions are signalling: IEEE_OVERFLOW_FLAG
Note: The following floating-point exceptions are signalling: IEEE_OVERFLOW_FLAG
Note: The following floating-point exceptions are signalling: IEEE_OVERFLOW_FLAG
Note: The following floating-point exceptions are signalling: IEEE_OVERFLOW_FLAG
Note: The following floating-point exceptions are signalling: IEEE_OVERFLOW_FLAG
Note: The following floating-point exceptions are signalling: IEEE_OVERFLOW_FLAG
Note: The following floating-point exceptions are signalling: IEEE_OVERFLOW_FLAG
Note: The following floating-point exceptions are signalling: IEEE_OVERFLOW_FLAG
Note: The following floating-point exceptions are signalling: IEEE_OVERFLOW_FLAG
Note: The following floating-point exceptions are signalling: IEEE_OVERFLOW_FLAG
Note: The following floating-point exceptions are signalling: IEEE_OVERFLOW_FLAG
Note: The following floating-point exceptions are signalling: IEEE_OVERFLOW_FLAG
Note: The following floating-point exceptions are signalling: IEEE_OVERFLOW_FLAG
Note: The following floating-point exceptions are signalling: IEEE_OVERFLOW_FLAG
Note: The following floating-point exceptions are signalling: IEEE_OVERFLOW_FLAG
Note: The following floating-point exceptions are signalling: IEEE_OVERFLOW_FLAG
Note: The following floating-point exceptions are signalling: IEEE_OVERFLOW_FLAG
Note: The following floating-point exceptions are signalling: IEEE_OVERFLOW_FLAG
Note: The following floating-point exceptions are signalling: IEEE_OVERFLOW_FLAG
Note: The following floating-point exceptions are signalling: IEEE_OVERFLOW_FLAG
Note: The following floating-point exceptions are signalling: IEEE_OVERFLOW_FLAG
Note: The following floating-point exceptions are signalling: IEEE_OVERFLOW_FLAG
Note: The following floating-point exceptions are signalling: IEEE_OVERFLOW_FLAG
Note: The following floating-point exceptions are signalling: IEEE_OVERFLOW_FLAG
Note: The following floating-point exceptions are signalling: IEEE_OVERFLOW_FLAG
Note: The following floating-point exceptions are signalling: IEEE_OVERFLOW_FLAG
Note: The following floating-point exceptions are signalling: IEEE_OVERFLOW_FLAG
Note: The following floating-point exceptions are signalling: IEEE_OVERFLOW_FLAG
Note: The following floating-point exceptions are signalling: IEEE_OVERFLOW_FLAG
Note: The following floating-point exceptions are signalling: IEEE_OVERFLOW_FLAG
Note: The following floating-point exceptions are signalling: IEEE_OVERFLOW_FLAG
Note: The following floating-point exceptions are signalling: IEEE_OVERFLOW_FLAG
Note: The following floating-point exceptions are signalling: IEEE_OVERFLOW_FLAG
Note: The following floating-point exceptions are signalling: IEEE_OVERFLOW_FLAG
Note: The following floating-point exceptions are signalling: IEEE_OVERFLOW_FLAG
Note: The following floating-point exceptions are signalling: IEEE_OVERFLOW_FLAG
Note: The following floating-point exceptions are signalling: IEEE_OVERFLOW_FLAG
Note: The following floating-point exceptions are signalling: IEEE_OVERFLOW_FLAG
Note: The following floating-point exceptions are signalling: IEEE_OVERFLOW_FLAG
Note: The following floating-point exceptions are signalling: IEEE_OVERFLOW_FLAG
Note: The following floating-point exceptions are signalling: IEEE_OVERFLOW_FLAG
Note: The following floating-point exceptions are signalling: IEEE_OVERFLOW_FLAG
Note: The following floating-point exceptions are signalling: IEEE_OVERFLOW_FLAG
Note: The following floating-point exceptions are signalling: IEEE_OVERFLOW_FLAG
Note: The following floating-point exceptions are signalling: IEEE_OVERFLOW_FLAG
Note: The following floating-point exceptions are signalling: IEEE_OVERFLOW_FLAG
Note: The following floating-point exceptions are signalling: IEEE_OVERFLOW_FLAG
Note: The following floating-point exceptions are signalling: IEEE_OVERFLOW_FLAG
Note: The following floating-point exceptions are signalling: IEEE_OVERFLOW_FLAG
Note: The following floating-point exceptions are signalling: IEEE_OVERFLOW_FLAG
Note: The following floating-point exceptions are signalling: IEEE_OVERFLOW_FLAG
Note: The following floating-point exceptions are signalling: IEEE_OVERFLOW_FLAG
Note: The following floating-point exceptions are signalling: IEEE_OVERFLOW_FLAG
Note: The following floating-point exceptions are signalling: IEEE_OVERFLOW_FLAG
Note: The following floating-point exceptions are signalling: IEEE_OVERFLOW_FLAG
Note: The following floating-point exceptions are signalling: IEEE_OVERFLOW_FLAG
Note: The following floating-point exceptions are signalling: IEEE_OVERFLOW_FLAG
Note: The following floating-point exceptions are signalling: IEEE_OVERFLOW_FLAG
Note: The following floating-point exceptions are signalling: IEEE_OVERFLOW_FLAG
Note: The following floating-point exceptions are signalling: IEEE_OVERFLOW_FLAG
Note: The following floating-point exceptions are signalling: IEEE_OVERFLOW_FLAG
Note: The following floating-point exceptions are signalling: IEEE_OVERFLOW_FLAG
Note: The following floating-point exceptions are signalling: IEEE_OVERFLOW_FLAG
