   72   72   85    1
  0.2168974E+02  0.1053953E-08  0.6141200E-09  0.2412750E-08  0.5000000E-15
   1.0000000000000000E-004
  CAR 
 Name                                    
    282     15    184

  0.3742002E-15  0.3742002E-15  0.1262379E-14  0.2222222E-01
    1      -14.138222   1.000000
    2      -13.009577   1.000000
    3      -12.947038   1.000000
    4      -12.883958   1.000000
    5      -11.973277   1.000000
    6      -11.801947   1.000000
    7      -11.792602   1.000000
    8      -11.757320   1.000000
    9      -11.584909   1.000000
   10      -11.422448   1.000000
   11      -11.284912   1.000000
   12      -11.222584   1.000000
   13      -11.215237   1.000000
   14      -10.892550   1.000000
   15      -10.625292   1.000000
   16      -10.328402   1.000000
   17      -10.319980   1.000000
   18      -10.315826   1.000000
   19       -9.922217   1.000000
   20       -9.830856   1.000000
   21       -9.756976   1.000000
   22       -9.692593   1.000000
   23       -9.589531   1.000000
   24       -9.406042   1.000000
   25       -9.052307   1.000000
   26       -9.034336   1.000000
   27       -8.667228   1.000000
   28       -8.614729   1.000000
   29       -8.537013   1.000000
   30       -8.374381   1.000000
   31       -8.365724   1.000000
   32       -8.008168   1.000000
   33       -7.833534   1.000000
   34       -7.443080   1.000000
   35       -7.392147   1.000000
   36       -7.265487   1.000000
   37       -7.237445   1.000000
   38       -7.117926   1.000000
   39       -7.110492   1.000000
   40       -6.960524   1.000000
   41       -6.929497   1.000000
   42       -6.814782   1.000000
   43       -6.783871   1.000000
   44       -6.696767   1.000000
   45       -6.638333   1.000000
   46       -6.630888   1.000000
   47       -6.559456   1.000000
   48       -6.341193   1.000000
   49       -6.299428   1.000000
   50       -6.273548   1.000000
   51       -6.028021   1.000000
   52       -5.967517   1.000000
   53       -5.913026   1.000000
   54       -5.811024   1.000000
   55       -5.794357   1.000000
   56       -5.744817   1.000000
   57       -5.570824   1.000000
   58       -5.558918   1.000000
   59       -5.508672   1.000000
   60       -5.403528   1.000000
   61       -5.171642   1.000000
   62       -5.139586   1.000000
   63       -4.992632   1.000000
   64       -4.910212   1.000000
   65       -4.867801   1.000000
   66       -4.848279   1.000000
   67       -4.822030   1.000000
   68       -4.776320   1.000000
   69       -4.604215   1.000000
   70       -4.586656   1.000000
   71       -4.438615   1.000000
   72       -4.415462   1.000000
   73       -4.370740   1.000000
   74       -4.351822   1.000000
   75       -4.333154   1.000000
   76       -4.263584   1.000000
   77       -4.150899   1.000000
   78       -4.133094   1.000000
   79       -4.129032   1.000000
   80       -4.089916   1.000000
   81       -4.073186   1.000000
   82       -4.042789   1.000000
   83       -3.986095   1.000000
   84       -3.958281   1.000000
   85       -3.842158   1.000000
   86       -3.834697   1.000000
   87       -3.771930   1.000000
   88       -3.727182   1.000000
   89       -3.684662   1.000000
   90       -3.667550   1.000000
   91       -3.535127   1.000000
   92       -3.419022   1.000000
   93       -3.297168   1.000000
   94       -3.291416   1.000000
   95       -3.175086   1.000000
   96       -3.011624   1.000000
   97       -2.951211   1.000000
   98       -2.949156   1.000000
   99       -2.871203   1.000000
  100       -2.758690   1.000000
  101       -2.697996   1.000000
  102       -2.581385   1.000000
  103       -2.561758   1.000000
  104       -2.533384   1.000000
  105       -2.490155   1.000000
  106       -2.349231   1.000000
  107       -2.347160   1.000000
  108       -2.232807   1.000000
  109       -2.164679   1.000000
  110       -2.149552   1.000000
  111       -2.128135   1.000000
  112       -2.019837   1.000000
  113       -2.003920   1.000000
  114       -1.947166   1.000000
  115       -1.940995   1.000000
  116       -1.904977   1.000000
  117       -1.837893   1.000000
  118       -1.836279   1.000000
  119       -1.783188   1.000000
  120       -1.652269   1.000000
  121       -1.217289   1.000000
  122       -1.213059   1.000000
  123       -1.178320   1.000000
  124       -1.056178   1.000000
  125       -0.921497   1.000000
  126       -0.882546   1.000000
  127       -0.726669   1.000000
  128       -0.662146   1.000000
  129       -0.585204   1.000000
  130       -0.501043   1.000000
  131       -0.388124   1.000000
  132       -0.385257   1.000000
  133       -0.285624   1.000000
  134       -0.205679   1.000000
  135        0.000462   1.001480
  136        0.029257   1.004671
  137        0.103817   1.031371
  138        0.117315   1.035083
  139        0.184024   0.923885
  140        0.188911   0.901174
  141        0.221872   0.689226
  142        0.303307   0.087235
  143        0.393479  -0.028278
  144        0.412999  -0.019381
  145        0.433269  -0.011426
  146        0.460138  -0.004738
  147        0.468520  -0.003465
  148        0.573949  -0.000017
  149        0.609854  -0.000002
  150        0.626688  -0.000000
  151        0.866668  -0.000000
  152        0.923659  -0.000000
  153        0.977687  -0.000000
  154        0.979799  -0.000000
  155        1.073316  -0.000000
  156        1.074292  -0.000000
  157        1.126271  -0.000000
  158        1.167569  -0.000000
  159        1.202539  -0.000000
  160        1.244313  -0.000000
  161        1.250181  -0.000000
  162        1.255195  -0.000000
  163        1.311608  -0.000000
  164        1.378535  -0.000000
  165        1.509023  -0.000000
  166        1.513433  -0.000000
  167        1.525459  -0.000000
  168        1.541790  -0.000000
  169        1.558108  -0.000000
  170        1.581435  -0.000000
  171        1.585705  -0.000000
  172        1.591190  -0.000000
  173        1.643821  -0.000000
  174        1.650860  -0.000000
  175        1.731867  -0.000000
  176        1.807228  -0.000000
  177        1.812662  -0.000000
  178        1.841280  -0.000000
  179        1.858679  -0.000000
  180        1.993963  -0.000000
  181        2.029870  -0.000000
  182        2.118142  -0.000000
  183        2.143778  -0.000000
  184        2.203552  -0.000000

  0.2000000E+00  0.3742002E-15  0.1262379E-14  0.4444444E-01
    1      -14.089764   1.000000
    2      -13.384611   1.000000
    3      -12.839100   1.000000
    4      -12.499912   1.000000
    5      -12.180029   1.000000
    6      -11.963019   1.000000
    7      -11.808408   1.000000
    8      -11.514545   1.000000
    9      -11.420407   1.000000
   10      -11.343315   1.000000
   11      -11.275373   1.000000
   12      -11.245867   1.000000
   13      -11.120340   1.000000
   14      -10.958709   1.000000
   15      -10.764031   1.000000
   16      -10.689939   1.000000
   17      -10.662108   1.000000
   18       -9.916852   1.000000
   19       -9.888699   1.000000
   20       -9.762818   1.000000
   21       -9.670757   1.000000
   22       -9.651024   1.000000
   23       -9.565391   1.000000
   24       -9.545719   1.000000
   25       -9.206523   1.000000
   26       -8.940942   1.000000
   27       -8.531249   1.000000
   28       -8.513567   1.000000
   29       -8.317374   1.000000
   30       -8.306529   1.000000
   31       -8.279590   1.000000
   32       -8.275037   1.000000
   33       -7.710859   1.000000
   34       -7.684007   1.000000
   35       -7.485734   1.000000
   36       -7.395866   1.000000
   37       -7.349192   1.000000
   38       -7.304819   1.000000
   39       -7.122492   1.000000
   40       -6.978316   1.000000
   41       -6.863739   1.000000
   42       -6.838065   1.000000
   43       -6.763179   1.000000
   44       -6.686547   1.000000
   45       -6.654224   1.000000
   46       -6.556468   1.000000
   47       -6.399401   1.000000
   48       -6.358971   1.000000
   49       -6.278946   1.000000
   50       -6.220179   1.000000
   51       -5.963318   1.000000
   52       -5.935004   1.000000
   53       -5.836033   1.000000
   54       -5.807427   1.000000
   55       -5.690017   1.000000
   56       -5.676631   1.000000
   57       -5.563780   1.000000
   58       -5.562091   1.000000
   59       -5.531586   1.000000
   60       -5.399574   1.000000
   61       -5.344666   1.000000
   62       -5.071076   1.000000
   63       -5.062233   1.000000
   64       -4.930212   1.000000
   65       -4.928979   1.000000
   66       -4.862337   1.000000
   67       -4.840173   1.000000
   68       -4.780548   1.000000
   69       -4.554788   1.000000
   70       -4.524443   1.000000
   71       -4.409511   1.000000
   72       -4.408444   1.000000
   73       -4.399701   1.000000
   74       -4.370410   1.000000
   75       -4.321442   1.000000
   76       -4.273035   1.000000
   77       -4.150211   1.000000
   78       -4.135418   1.000000
   79       -4.131379   1.000000
   80       -4.117530   1.000000
   81       -4.087407   1.000000
   82       -4.040416   1.000000
   83       -3.944649   1.000000
   84       -3.884364   1.000000
   85       -3.827395   1.000000
   86       -3.783746   1.000000
   87       -3.742353   1.000000
   88       -3.727510   1.000000
   89       -3.709506   1.000000
   90       -3.706279   1.000000
   91       -3.672225   1.000000
   92       -3.393487   1.000000
   93       -3.377350   1.000000
   94       -3.351370   1.000000
   95       -3.151003   1.000000
   96       -3.123389   1.000000
   97       -2.998405   1.000000
   98       -2.953613   1.000000
   99       -2.917814   1.000000
  100       -2.908046   1.000000
  101       -2.578822   1.000000
  102       -2.501073   1.000000
  103       -2.455112   1.000000
  104       -2.427291   1.000000
  105       -2.419329   1.000000
  106       -2.396332   1.000000
  107       -2.345210   1.000000
  108       -2.214311   1.000000
  109       -2.179129   1.000000
  110       -2.164229   1.000000
  111       -2.092137   1.000000
  112       -2.024190   1.000000
  113       -1.941929   1.000000
  114       -1.916567   1.000000
  115       -1.897635   1.000000
  116       -1.851830   1.000000
  117       -1.804781   1.000000
  118       -1.802971   1.000000
  119       -1.646214   1.000000
  120       -1.578208   1.000000
  121       -1.306943   1.000000
  122       -1.246209   1.000000
  123       -1.174664   1.000000
  124       -1.092464   1.000000
  125       -1.018823   1.000000
  126       -0.961438   1.000000
  127       -0.746654   1.000000
  128       -0.745923   1.000000
  129       -0.667577   1.000000
  130       -0.618446   1.000000
  131       -0.532616   1.000000
  132       -0.460114   1.000000
  133       -0.381919   1.000000
  134       -0.275392   1.000000
  135       -0.139019   1.000000
  136       -0.048726   1.000133
  137        0.134621   1.032766
  138        0.176972   0.952410
  139        0.180558   0.938527
  140        0.231130   0.615273
  141        0.319759   0.024284
  142        0.395879  -0.027210
  143        0.413892  -0.018987
  144        0.471827  -0.003048
  145        0.483309  -0.001913
  146        0.502478  -0.000820
  147        0.527921  -0.000234
  148        0.529339  -0.000217
  149        0.565515  -0.000028
  150        0.678926  -0.000000
  151        0.907224  -0.000000
  152        0.972740  -0.000000
  153        1.009719  -0.000000
  154        1.090067  -0.000000
  155        1.092087  -0.000000
  156        1.121630  -0.000000
  157        1.131083  -0.000000
  158        1.134634  -0.000000
  159        1.244532  -0.000000
  160        1.275164  -0.000000
  161        1.296398  -0.000000
  162        1.327466  -0.000000
  163        1.379582  -0.000000
  164        1.389800  -0.000000
  165        1.464718  -0.000000
  166        1.477750  -0.000000
  167        1.509998  -0.000000
  168        1.547758  -0.000000
  169        1.551974  -0.000000
  170        1.565444  -0.000000
  171        1.613948  -0.000000
  172        1.660312  -0.000000
  173        1.693738  -0.000000
  174        1.739718  -0.000000
  175        1.741268  -0.000000
  176        1.797006  -0.000000
  177        1.837688  -0.000000
  178        1.858327  -0.000000
  179        1.886680  -0.000000
  180        1.937177  -0.000000
  181        1.970583  -0.000000
  182        2.007708  -0.000000
  183        2.064310  -0.000000
  184        2.105444  -0.000000

  0.4000000E+00  0.3742002E-15  0.1262379E-14  0.4444444E-01
    1      -13.945488   1.000000
    2      -13.708632   1.000000
    3      -12.705211   1.000000
    4      -12.484355   1.000000
    5      -11.961428   1.000000
    6      -11.931841   1.000000
    7      -11.879200   1.000000
    8      -11.428389   1.000000
    9      -11.415957   1.000000
   10      -11.374433   1.000000
   11      -11.248428   1.000000
   12      -11.129027   1.000000
   13      -11.107978   1.000000
   14      -10.987908   1.000000
   15      -10.943651   1.000000
   16      -10.833499   1.000000
   17      -10.813142   1.000000
   18      -10.252726   1.000000
   19       -9.827649   1.000000
   20       -9.783744   1.000000
   21       -9.615817   1.000000
   22       -9.563509   1.000000
   23       -9.472109   1.000000
   24       -9.392898   1.000000
   25       -9.164038   1.000000
   26       -8.957059   1.000000
   27       -8.514142   1.000000
   28       -8.382097   1.000000
   29       -8.112300   1.000000
   30       -8.063871   1.000000
   31       -8.063165   1.000000
   32       -8.061665   1.000000
   33       -7.969456   1.000000
   34       -7.905852   1.000000
   35       -7.799254   1.000000
   36       -7.767839   1.000000
   37       -7.528998   1.000000
   38       -7.409783   1.000000
   39       -7.313560   1.000000
   40       -7.028181   1.000000
   41       -6.791310   1.000000
   42       -6.728355   1.000000
   43       -6.709611   1.000000
   44       -6.644089   1.000000
   45       -6.540917   1.000000
   46       -6.392914   1.000000
   47       -6.351726   1.000000
   48       -6.263100   1.000000
   49       -6.221109   1.000000
   50       -6.172199   1.000000
   51       -6.047282   1.000000
   52       -6.008496   1.000000
   53       -5.920526   1.000000
   54       -5.819653   1.000000
   55       -5.717933   1.000000
   56       -5.589648   1.000000
   57       -5.531297   1.000000
   58       -5.470085   1.000000
   59       -5.350951   1.000000
   60       -5.301752   1.000000
   61       -5.275723   1.000000
   62       -5.095684   1.000000
   63       -5.073432   1.000000
   64       -5.021387   1.000000
   65       -4.966685   1.000000
   66       -4.909112   1.000000
   67       -4.811567   1.000000
   68       -4.749789   1.000000
   69       -4.630301   1.000000
   70       -4.605935   1.000000
   71       -4.536568   1.000000
   72       -4.456637   1.000000
   73       -4.381825   1.000000
   74       -4.371629   1.000000
   75       -4.327833   1.000000
   76       -4.313095   1.000000
   77       -4.130924   1.000000
   78       -4.101170   1.000000
   79       -4.058967   1.000000
   80       -4.056872   1.000000
   81       -4.023744   1.000000
   82       -4.009319   1.000000
   83       -3.926674   1.000000
   84       -3.915937   1.000000
   85       -3.822523   1.000000
   86       -3.819467   1.000000
   87       -3.747509   1.000000
   88       -3.739901   1.000000
   89       -3.650913   1.000000
   90       -3.616933   1.000000
   91       -3.607068   1.000000
   92       -3.478175   1.000000
   93       -3.471846   1.000000
   94       -3.390201   1.000000
   95       -3.367712   1.000000
   96       -3.272896   1.000000
   97       -3.142456   1.000000
   98       -3.073324   1.000000
   99       -2.954257   1.000000
  100       -2.693305   1.000000
  101       -2.580905   1.000000
  102       -2.551961   1.000000
  103       -2.483504   1.000000
  104       -2.480016   1.000000
  105       -2.234673   1.000000
  106       -2.232380   1.000000
  107       -2.220668   1.000000
  108       -2.218927   1.000000
  109       -2.105143   1.000000
  110       -2.065190   1.000000
  111       -2.027627   1.000000
  112       -1.981739   1.000000
  113       -1.952705   1.000000
  114       -1.908076   1.000000
  115       -1.766608   1.000000
  116       -1.748093   1.000000
  117       -1.652315   1.000000
  118       -1.573379   1.000000
  119       -1.537109   1.000000
  120       -1.455919   1.000000
  121       -1.361062   1.000000
  122       -1.347697   1.000000
  123       -1.276314   1.000000
  124       -1.252175   1.000000
  125       -1.202524   1.000000
  126       -1.044590   1.000000
  127       -1.043257   1.000000
  128       -0.888768   1.000000
  129       -0.832732   1.000000
  130       -0.824279   1.000000
  131       -0.641051   1.000000
  132       -0.581728   1.000000
  133       -0.375716   1.000000
  134       -0.338817   1.000000
  135       -0.191060   1.000000
  136        0.057346   1.011703
  137        0.085625   1.023404
  138        0.096057   1.028167
  139        0.182228   0.931623
  140        0.220869   0.696960
  141        0.275120   0.256709
  142        0.332396  -0.006828
  143        0.389799  -0.029851
  144        0.491151  -0.001367
  145        0.494883  -0.001159
  146        0.527611  -0.000238
  147        0.605264  -0.000002
  148        0.752684  -0.000000
  149        0.769564  -0.000000
  150        0.783644  -0.000000
  151        0.909287  -0.000000
  152        1.020593  -0.000000
  153        1.026765  -0.000000
  154        1.107365  -0.000000
  155        1.130998  -0.000000
  156        1.200932  -0.000000
  157        1.202370  -0.000000
  158        1.294771  -0.000000
  159        1.323031  -0.000000
  160        1.352394  -0.000000
  161        1.378363  -0.000000
  162        1.409417  -0.000000
  163        1.428770  -0.000000
  164        1.438586  -0.000000
  165        1.447256  -0.000000
  166        1.466205  -0.000000
  167        1.521398  -0.000000
  168        1.580591  -0.000000
  169        1.591560  -0.000000
  170        1.594317  -0.000000
  171        1.622607  -0.000000
  172        1.628816  -0.000000
  173        1.710754  -0.000000
  174        1.720771  -0.000000
  175        1.755441  -0.000000
  176        1.792433  -0.000000
  177        1.806190  -0.000000
  178        1.839022  -0.000000
  179        1.848520  -0.000000
  180        1.899163  -0.000000
  181        1.925952  -0.000000
  182        1.930714  -0.000000
  183        2.044932  -0.000000
  184        2.091910  -0.000000

  0.3742002E-15  0.1111111E+00  0.1262379E-14  0.4444444E-01
    1      -14.091379   1.000000
    2      -12.969897   1.000000
    3      -12.913917   1.000000
    4      -12.844585   1.000000
    5      -12.077750   1.000000
    6      -11.794495   1.000000
    7      -11.770494   1.000000
    8      -11.767456   1.000000
    9      -11.623568   1.000000
   10      -11.467065   1.000000
   11      -11.265813   1.000000
   12      -11.232215   1.000000
   13      -11.213269   1.000000
   14      -10.863595   1.000000
   15      -10.646439   1.000000
   16      -10.308346   1.000000
   17      -10.295341   1.000000
   18      -10.280774   1.000000
   19       -9.895423   1.000000
   20       -9.866947   1.000000
   21       -9.778543   1.000000
   22       -9.719985   1.000000
   23       -9.603760   1.000000
   24       -9.388941   1.000000
   25       -9.073973   1.000000
   26       -9.008588   1.000000
   27       -8.663584   1.000000
   28       -8.620433   1.000000
   29       -8.516502   1.000000
   30       -8.417463   1.000000
   31       -8.183775   1.000000
   32       -8.023165   1.000000
   33       -7.951296   1.000000
   34       -7.550556   1.000000
   35       -7.517425   1.000000
   36       -7.238730   1.000000
   37       -7.212563   1.000000
   38       -7.105025   1.000000
   39       -7.089965   1.000000
   40       -6.902374   1.000000
   41       -6.853694   1.000000
   42       -6.817674   1.000000
   43       -6.788430   1.000000
   44       -6.701836   1.000000
   45       -6.621393   1.000000
   46       -6.605774   1.000000
   47       -6.574371   1.000000
   48       -6.357800   1.000000
   49       -6.340791   1.000000
   50       -6.201251   1.000000
   51       -6.008813   1.000000
   52       -5.979380   1.000000
   53       -5.853076   1.000000
   54       -5.839210   1.000000
   55       -5.761997   1.000000
   56       -5.726944   1.000000
   57       -5.545179   1.000000
   58       -5.490161   1.000000
   59       -5.462098   1.000000
   60       -5.398734   1.000000
   61       -5.176499   1.000000
   62       -5.099582   1.000000
   63       -4.975035   1.000000
   64       -4.912575   1.000000
   65       -4.853666   1.000000
   66       -4.838214   1.000000
   67       -4.819606   1.000000
   68       -4.775849   1.000000
   69       -4.595926   1.000000
   70       -4.546880   1.000000
   71       -4.479099   1.000000
   72       -4.458375   1.000000
   73       -4.378027   1.000000
   74       -4.355167   1.000000
   75       -4.349332   1.000000
   76       -4.263899   1.000000
   77       -4.245367   1.000000
   78       -4.238841   1.000000
   79       -4.221856   1.000000
   80       -4.157670   1.000000
   81       -4.147596   1.000000
   82       -3.987400   1.000000
   83       -3.962312   1.000000
   84       -3.933314   1.000000
   85       -3.908871   1.000000
   86       -3.851188   1.000000
   87       -3.840796   1.000000
   88       -3.707591   1.000000
   89       -3.689330   1.000000
   90       -3.656762   1.000000
   91       -3.650159   1.000000
   92       -3.459658   1.000000
   93       -3.212307   1.000000
   94       -3.118694   1.000000
   95       -3.109748   1.000000
   96       -2.982771   1.000000
   97       -2.976662   1.000000
   98       -2.973483   1.000000
   99       -2.845484   1.000000
  100       -2.766871   1.000000
  101       -2.718465   1.000000
  102       -2.692819   1.000000
  103       -2.608003   1.000000
  104       -2.509452   1.000000
  105       -2.426705   1.000000
  106       -2.417195   1.000000
  107       -2.408723   1.000000
  108       -2.292834   1.000000
  109       -2.223721   1.000000
  110       -2.222683   1.000000
  111       -2.179569   1.000000
  112       -2.068089   1.000000
  113       -2.037086   1.000000
  114       -1.909392   1.000000
  115       -1.905865   1.000000
  116       -1.867930   1.000000
  117       -1.797345   1.000000
  118       -1.760904   1.000000
  119       -1.722225   1.000000
  120       -1.588761   1.000000
  121       -1.302647   1.000000
  122       -1.204054   1.000000
  123       -1.066511   1.000000
  124       -1.047037   1.000000
  125       -0.967124   1.000000
  126       -0.888598   1.000000
  127       -0.787970   1.000000
  128       -0.758044   1.000000
  129       -0.700466   1.000000
  130       -0.472199   1.000000
  131       -0.440113   1.000000
  132       -0.368619   1.000000
  133       -0.190696   1.000000
  134       -0.143822   1.000000
  135       -0.044241   1.000169
  136        0.033779   1.005492
  137        0.062804   1.013641
  138        0.107217   1.032587
  139        0.131027   1.034178
  140        0.132644   1.033614
  141        0.193115   0.879718
  142        0.199659   0.842818
  143        0.373886  -0.034860
  144        0.394444  -0.027852
  145        0.402848  -0.024013
  146        0.502832  -0.000806
  147        0.574658  -0.000016
  148        0.625096  -0.000001
  149        0.790164  -0.000000
  150        0.796740  -0.000000
  151        0.894870  -0.000000
  152        0.912234  -0.000000
  153        0.912725  -0.000000
  154        1.071861  -0.000000
  155        1.079460  -0.000000
  156        1.100438  -0.000000
  157        1.129884  -0.000000
  158        1.177790  -0.000000
  159        1.244473  -0.000000
  160        1.250705  -0.000000
  161        1.255888  -0.000000
  162        1.283364  -0.000000
  163        1.299691  -0.000000
  164        1.316131  -0.000000
  165        1.413793  -0.000000
  166        1.461083  -0.000000
  167        1.511027  -0.000000
  168        1.535232  -0.000000
  169        1.583092  -0.000000
  170        1.589702  -0.000000
  171        1.605001  -0.000000
  172        1.633840  -0.000000
  173        1.654256  -0.000000
  174        1.714996  -0.000000
  175        1.744866  -0.000000
  176        1.753801  -0.000000
  177        1.799060  -0.000000
  178        1.819919  -0.000000
  179        1.830182  -0.000000
  180        1.861738  -0.000000
  181        1.889698  -0.000000
  182        2.037372  -0.000000
  183        2.200848  -0.000000
  184        2.246621  -0.000000

  0.2000000E+00  0.1111111E+00  0.1262379E-14  0.8888889E-01
    1      -14.043319   1.000000
    2      -13.344203   1.000000
    3      -12.800136   1.000000
    4      -12.468346   1.000000
    5      -12.147499   1.000000
    6      -12.063608   1.000000
    7      -11.862541   1.000000
    8      -11.535914   1.000000
    9      -11.464147   1.000000
   10      -11.318058   1.000000
   11      -11.298110   1.000000
   12      -11.219803   1.000000
   13      -11.117002   1.000000
   14      -10.936967   1.000000
   15      -10.742089   1.000000
   16      -10.704413   1.000000
   17      -10.637223   1.000000
   18       -9.902077   1.000000
   19       -9.873721   1.000000
   20       -9.790740   1.000000
   21       -9.696084   1.000000
   22       -9.640201   1.000000
   23       -9.574674   1.000000
   24       -9.546060   1.000000
   25       -9.202442   1.000000
   26       -8.939322   1.000000
   27       -8.534077   1.000000
   28       -8.509929   1.000000
   29       -8.335315   1.000000
   30       -8.314873   1.000000
   31       -8.277469   1.000000
   32       -8.117641   1.000000
   33       -7.816689   1.000000
   34       -7.763184   1.000000
   35       -7.569185   1.000000
   36       -7.335057   1.000000
   37       -7.297346   1.000000
   38       -7.288264   1.000000
   39       -7.097018   1.000000
   40       -6.961339   1.000000
   41       -6.836494   1.000000
   42       -6.826789   1.000000
   43       -6.810584   1.000000
   44       -6.766277   1.000000
   45       -6.680979   1.000000
   46       -6.646846   1.000000
   47       -6.389236   1.000000
   48       -6.325245   1.000000
   49       -6.176938   1.000000
   50       -6.136147   1.000000
   51       -5.970137   1.000000
   52       -5.925808   1.000000
   53       -5.856870   1.000000
   54       -5.740645   1.000000
   55       -5.703402   1.000000
   56       -5.684315   1.000000
   57       -5.551744   1.000000
   58       -5.495848   1.000000
   59       -5.466500   1.000000
   60       -5.367470   1.000000
   61       -5.331693   1.000000
   62       -5.087746   1.000000
   63       -5.038335   1.000000
   64       -4.910701   1.000000
   65       -4.874137   1.000000
   66       -4.868859   1.000000
   67       -4.793422   1.000000
   68       -4.755219   1.000000
   69       -4.572618   1.000000
   70       -4.545813   1.000000
   71       -4.446730   1.000000
   72       -4.410857   1.000000
   73       -4.389824   1.000000
   74       -4.363205   1.000000
   75       -4.326282   1.000000
   76       -4.310644   1.000000
   77       -4.289028   1.000000
   78       -4.218679   1.000000
   79       -4.213453   1.000000
   80       -4.180307   1.000000
   81       -4.106189   1.000000
   82       -4.010466   1.000000
   83       -3.973338   1.000000
   84       -3.900257   1.000000
   85       -3.886754   1.000000
   86       -3.875538   1.000000
   87       -3.825460   1.000000
   88       -3.718807   1.000000
   89       -3.677853   1.000000
   90       -3.642678   1.000000
   91       -3.631729   1.000000
   92       -3.428235   1.000000
   93       -3.307897   1.000000
   94       -3.210331   1.000000
   95       -3.182941   1.000000
   96       -3.113238   1.000000
   97       -3.022067   1.000000
   98       -2.966661   1.000000
   99       -2.951045   1.000000
  100       -2.882634   1.000000
  101       -2.612497   1.000000
  102       -2.566738   1.000000
  103       -2.534359   1.000000
  104       -2.470472   1.000000
  105       -2.409323   1.000000
  106       -2.395305   1.000000
  107       -2.299620   1.000000
  108       -2.246382   1.000000
  109       -2.224984   1.000000
  110       -2.163439   1.000000
  111       -2.092615   1.000000
  112       -2.090799   1.000000
  113       -1.992402   1.000000
  114       -1.989455   1.000000
  115       -1.899798   1.000000
  116       -1.896262   1.000000
  117       -1.763775   1.000000
  118       -1.712516   1.000000
  119       -1.612153   1.000000
  120       -1.523913   1.000000
  121       -1.359618   1.000000
  122       -1.209342   1.000000
  123       -1.136407   1.000000
  124       -1.096399   1.000000
  125       -1.066198   1.000000
  126       -0.964507   1.000000
  127       -0.949278   1.000000
  128       -0.782693   1.000000
  129       -0.614511   1.000000
  130       -0.584449   1.000000
  131       -0.408290   1.000000
  132       -0.367864   1.000000
  133       -0.227541   1.000000
  134       -0.200556   1.000000
  135       -0.161767   1.000000
  136       -0.112129   1.000003
  137       -0.002091   1.001323
  138        0.081252   1.021391
  139        0.132544   1.033652
  140        0.226078   0.656155
  141        0.277250   0.241426
  142        0.321283   0.019778
  143        0.337881  -0.016234
  144        0.422220  -0.015480
  145        0.432628  -0.011641
  146        0.513357  -0.000488
  147        0.661780  -0.000000
  148        0.676517  -0.000000
  149        0.714204  -0.000000
  150        0.803011  -0.000000
  151        0.861102  -0.000000
  152        0.936166  -0.000000
  153        1.019077  -0.000000
  154        1.117574  -0.000000
  155        1.145796  -0.000000
  156        1.164359  -0.000000
  157        1.172148  -0.000000