 running on   72 total cores
 distrk:  each k-point on   72 cores,    1 groups
 distr:  one band on    9 cores,    8 groups
 using from now: INCAR     
 vasp.5.4.4.18Apr17-6-g9f103f2a35 (build Dec  7 2020 12:43:57) complex           
 POSCAR found type information on POSCAR  Mo V  B 
 POSCAR found :  3 types and      72 ions
 scaLAPACK will be used
 LDA part: xc-table for Pade appr. of Perdew
 POSCAR, INCAR and KPOINTS ok, starting setup
 resort distribution
 resort distribution
 resort distribution
 resort distribution
 resort distribution
 resort distribution
 resort distribution
 resort distribution
 resort distribution
 resort distribution
 resort distribution
 resort distribution
 resort distribution
 resort distribution
 resort distribution
 resort distribution
 resort distribution
 resort distribution
 resort distribution
 resort distribution
 resort distribution
 resort distribution
 resort distribution
 resort distribution
 resort distribution
 resort distribution
 resort distribution
 resort distribution
 resort distribution
 resort distribution
 resort distribution
 resort distribution
 resort distribution
 resort distribution
 resort distribution
 resort distribution
 resort distribution
 resort distribution
 resort distribution
 resort distribution
 resort distribution
 resort distribution
 resort distribution
 resort distribution
 resort distribution
 resort distribution
 resort distribution
 resort distribution
 resort distribution
 resort distribution
 resort distribution
 resort distribution
 resort distribution
 resort distribution
 resort distribution
 resort distribution
 resort distribution
 resort distribution
 resort distribution
 resort distribution
 resort distribution
 resort distribution
 resort distribution
 resort distribution
 resort distribution
 resort distribution
 resort distribution
 resort distribution
 resort distribution
 resort distribution
 resort distribution
 resort distribution
 FFT: planning ...
 WAVECAR not read
 augmentation electrons   282.02788354757178     
 soft         electrons   0.0000000000000000     
 augmentation electrons   282.02788354757178     
 soft         electrons   0.0000000000000000     
 augmentation electrons   282.02788354757178     
 soft         electrons   0.0000000000000000     
 augmentation electrons   282.02788354757178     
 soft         electrons   0.0000000000000000     
 augmentation electrons   282.02788354757178     
 soft         electrons   0.0000000000000000     
 augmentation electrons   282.02788354757178     
 soft         electrons   0.0000000000000000     
 augmentation electrons   282.02788354757178     
 soft         electrons   0.0000000000000000     
 augmentation electrons   282.02788354757178     
 soft         electrons   0.0000000000000000     
 augmentation electrons   282.02788354757178     
 soft         electrons   0.0000000000000000     
 augmentation electrons   282.02788354757178     
 soft         electrons   0.0000000000000000     
 augmentation electrons   282.02788354757178     
 soft         electrons   0.0000000000000000     
 augmentation electrons   282.02788354757178     
 soft         electrons   0.0000000000000000     
 augmentation electrons   282.02788354757178     
 soft         electrons   0.0000000000000000     
 augmentation electrons   282.02788354757178     
 soft         electrons   0.0000000000000000     
 augmentation electrons   282.02788354757178     
 soft         electrons   0.0000000000000000     
 augmentation electrons   282.02788354757178     
 soft         electrons   0.0000000000000000     
 augmentation electrons   282.02788354757178     
 soft         electrons   0.0000000000000000     
 augmentation electrons   282.02788354757178     
 soft         electrons   0.0000000000000000     
 augmentation electrons   282.02788354757178     
 soft         electrons   0.0000000000000000     
 augmentation electrons   282.02788354757178     
 soft         electrons   0.0000000000000000     
 augmentation electrons   282.02788354757178     
 soft         electrons   0.0000000000000000     
 augmentation electrons   282.02788354757178     
 soft         electrons   0.0000000000000000     
 augmentation electrons   282.02788354757178     
 soft         electrons   0.0000000000000000     
 augmentation electrons   282.02788354757178     
 soft         electrons   0.0000000000000000     
 augmentation electrons   282.02788354757178     
 soft         electrons   0.0000000000000000     
 augmentation electrons   282.02788354757178     
 soft         electrons   0.0000000000000000     
 augmentation electrons   282.02788354757178     
 soft         electrons   0.0000000000000000     
 augmentation electrons   282.02788354757178     
 soft         electrons   0.0000000000000000     
 augmentation electrons   282.02788354757178     
 soft         electrons   0.0000000000000000     
 augmentation electrons   282.02788354757178     
 soft         electrons   0.0000000000000000     
 augmentation electrons   282.02788354757178     
 soft         electrons   0.0000000000000000     
 augmentation electrons   282.02788354757178     
 soft         electrons   0.0000000000000000     
 augmentation electrons   282.02788354757178     
 soft         electrons   0.0000000000000000     
 augmentation electrons   282.02788354757178     
 soft         electrons   0.0000000000000000     
 augmentation electrons   282.02788354757178     
 soft         electrons   0.0000000000000000     
 augmentation electrons   282.02788354757178     
 soft         electrons   0.0000000000000000     
 augmentation electrons   282.02788354757178     
 soft         electrons   0.0000000000000000     
 augmentation electrons   282.02788354757178     
 soft         electrons   0.0000000000000000     
 augmentation electrons   282.02788354757178     
 soft         electrons   0.0000000000000000     
 augmentation electrons   282.02788354757178     
 soft         electrons   0.0000000000000000     
 augmentation electrons   282.02788354757178     
 soft         electrons   0.0000000000000000     
 augmentation electrons   282.02788354757178     
 soft         electrons   0.0000000000000000     
 augmentation electrons   282.02788354757178     
 soft         electrons   0.0000000000000000     
 augmentation electrons   282.02788354757178     
 soft         electrons   0.0000000000000000     
 augmentation electrons   282.02788354757178     
 soft         electrons   0.0000000000000000     
 augmentation electrons   282.02788354757178     
 soft         electrons   0.0000000000000000     
 augmentation electrons   282.02788354757178     
 soft         electrons   0.0000000000000000     
 augmentation electrons   282.02788354757178     
 soft         electrons   0.0000000000000000     
 augmentation electrons   282.02788354757178     
 soft         electrons   0.0000000000000000     
 augmentation electrons   282.02788354757178     
 soft         electrons   0.0000000000000000     
 augmentation electrons   282.02788354757178     
 soft         electrons   0.0000000000000000     
 augmentation electrons   282.02788354757178     
 soft         electrons   0.0000000000000000     
 augmentation electrons   282.02788354757178     
 soft         electrons   0.0000000000000000     
 augmentation electrons   282.02788354757178     
 soft         electrons   0.0000000000000000     
 augmentation electrons   282.02788354757178     
 soft         electrons   0.0000000000000000     
 augmentation electrons   282.02788354757178     
 soft         electrons   0.0000000000000000     
 augmentation electrons   282.02788354757178     
 soft         electrons   0.0000000000000000     
 augmentation electrons   282.02788354757178     
 soft         electrons   0.0000000000000000     
 augmentation electrons   282.02788354757178     
 soft         electrons   0.0000000000000000     
 augmentation electrons   282.02788354757178     
 soft         electrons   0.0000000000000000     
 augmentation electrons   282.02788354757178     
 soft         electrons   0.0000000000000000     
 augmentation electrons   282.02788354757178     
 soft         electrons   0.0000000000000000     
 augmentation electrons   282.02788354757178     
 soft         electrons   0.0000000000000000     
 augmentation electrons   282.02788354757178     
 soft         electrons   0.0000000000000000     
 augmentation electrons   282.02788354757178     
 soft         electrons   0.0000000000000000     
 augmentation electrons   282.02788354757178     
 soft         electrons   0.0000000000000000     
 augmentation electrons   282.02788354757178     
 soft         electrons   0.0000000000000000     
 augmentation electrons   282.02788354757178     
 soft         electrons   0.0000000000000000     
 augmentation electrons   282.02788354757178     
 soft         electrons   0.0000000000000000     
 augmentation electrons   282.02788354757178     
 soft         electrons   0.0000000000000000     
 augmentation electrons   282.02788354757178     
 soft         electrons   0.0000000000000000     
 augmentation electrons   282.02788354757178     
 soft         electrons   0.0000000000000000     
 total        electrons   282.02788354757178     
 total        electrons   282.02788354757178     
 total        electrons   282.02788354757178     
 total        electrons   282.02788354757178     
 total        electrons   282.02788354757178     
 total        electrons   282.02788354757178     
 total        electrons   282.02788354757178     
 total        electrons   282.02788354757178     
 total        electrons   282.02788354757178     
 total        electrons   282.02788354757178     
 total        electrons   282.02788354757178     
 total        electrons   282.02788354757178     
 total        electrons   282.02788354757178     
 total        electrons   282.02788354757178     
 total        electrons   282.02788354757178     
 total        electrons   282.02788354757178     
 total        electrons   282.02788354757178     
 total        electrons   282.02788354757178     
 total        electrons   282.02788354757178     
 total        electrons   282.02788354757178     
 total        electrons   282.02788354757178     
 total        electrons   282.02788354757178     
 total        electrons   282.02788354757178     
 total        electrons   282.02788354757178     
 total        electrons   282.02788354757178     
 total        electrons   282.02788354757178     
 total        electrons   282.02788354757178     
 total        electrons   282.02788354757178     
 total        electrons   282.02788354757178     
 total        electrons   282.02788354757178     
 total        electrons   282.02788354757178     
 total        electrons   282.02788354757178     
 total        electrons   282.02788354757178     
 total        electrons   282.02788354757178     
 total        electrons   282.02788354757178     
 total        electrons   282.02788354757178     
 total        electrons   282.02788354757178     
 total        electrons   282.02788354757178     
 total        electrons   282.02788354757178     
 total        electrons   282.02788354757178     
 total        electrons   282.02788354757178     
 total        electrons   282.02788354757178     
 total        electrons   282.02788354757178     
 total        electrons   282.02788354757178     
 total        electrons   282.02788354757178     
 total        electrons   282.02788354757178     
 total        electrons   282.02788354757178     
 total        electrons   282.02788354757178     
 total        electrons   282.02788354757178     
 total        electrons   282.02788354757178     
 total        electrons   282.02788354757178     
 total        electrons   282.02788354757178     
 total        electrons   282.02788354757178     
 total        electrons   282.02788354757178     
 total        electrons   282.02788354757178     
 total        electrons   282.02788354757178     
 total        electrons   282.02788354757178     
 total        electrons   282.02788354757178     
 total        electrons   282.02788354757178     
 total        electrons   282.02788354757178     
 total        electrons   282.02788354757178     
 total        electrons   282.02788354757178     
 total        electrons   282.02788354757178     
 total        electrons   282.02788354757178     
 total        electrons   282.02788354757178     
 total        electrons   282.02788354757178     
 total        electrons   282.02788354757178     
 total        electrons   282.02788354757178     
 total        electrons   282.02788354757178     
 total        electrons   282.02788354757178     
 total        electrons   282.02788354757178     
 total        electrons   282.02788354757178     
 augmentation electrons   1043.0637582034028     
 soft         electrons   0.0000000000000000     
 total        electrons   1043.0637582034028     
 augmentation electrons   1043.0637582034028     
 soft         electrons   0.0000000000000000     
 total        electrons   1043.0637582034028     
 augmentation electrons   1043.0637582034028     
 soft         electrons   0.0000000000000000     
 total        electrons   1043.0637582034028     
 augmentation electrons   1043.0637582034028     
 soft         electrons   0.0000000000000000     
 total        electrons   1043.0637582034028     
 augmentation electrons   1043.0637582034028     
 soft         electrons   0.0000000000000000     
 total        electrons   1043.0637582034028     
 augmentation electrons   1043.0637582034028     
 soft         electrons   0.0000000000000000     
 total        electrons   1043.0637582034028     
 augmentation electrons   1043.0637582034028     
 soft         electrons   0.0000000000000000     
 total        electrons   1043.0637582034028     
 augmentation electrons   1043.0637582034028     
 soft         electrons   0.0000000000000000     
 total        electrons   1043.0637582034028     
 augmentation electrons   1043.0637582034028     
 soft         electrons   0.0000000000000000     
 total        electrons   1043.0637582034028     
 augmentation electrons   1043.0637582034028     
 soft         electrons   0.0000000000000000     
 total        electrons   1043.0637582034028     
 augmentation electrons   1043.0637582034028     
 soft         electrons   0.0000000000000000     
 total        electrons   1043.0637582034028     
 augmentation electrons   1043.0637582034028     
 soft         electrons   0.0000000000000000     
 total        electrons   1043.0637582034028     
 augmentation electrons   1043.0637582034028     
 soft         electrons   0.0000000000000000     
 augmentation electrons   1043.0637582034028     
 soft         electrons   0.0000000000000000     
 total        electrons   1043.0637582034028     
 augmentation electrons   1043.0637582034028     
 soft         electrons   0.0000000000000000     
 total        electrons   1043.0637582034028     
 augmentation electrons   1043.0637582034028     
 soft         electrons   0.0000000000000000     
 total        electrons   1043.0637582034028     
 augmentation electrons   1043.0637582034028     
 soft         electrons   0.0000000000000000     
 total        electrons   1043.0637582034028     
 augmentation electrons   1043.0637582034028     
 soft         electrons   0.0000000000000000     
 total        electrons   1043.0637582034028     
 augmentation electrons   1043.0637582034028     
 soft         electrons   0.0000000000000000     
 total        electrons   1043.0637582034028     
 augmentation electrons   1043.0637582034028     
 soft         electrons   0.0000000000000000     
 total        electrons   1043.0637582034028     
 augmentation electrons   1043.0637582034028     
 soft         electrons   0.0000000000000000     
 total        electrons   1043.0637582034028     
 augmentation electrons   1043.0637582034028     
 soft         electrons   0.0000000000000000     
 total        electrons   1043.0637582034028     
 augmentation electrons   1043.0637582034028     
 soft         electrons   0.0000000000000000     
 total        electrons   1043.0637582034028     
 augmentation electrons   1043.0637582034028     
 soft         electrons   0.0000000000000000     
 total        electrons   1043.0637582034028     
 augmentation electrons   1043.0637582034028     
 soft         electrons   0.0000000000000000     
 total        electrons   1043.0637582034028     
 augmentation electrons   1043.0637582034028     
 soft         electrons   0.0000000000000000     
 total        electrons   1043.0637582034028     
 augmentation electrons   1043.0637582034028     
 soft         electrons   0.0000000000000000     
 total        electrons   1043.0637582034028     
 augmentation electrons   1043.0637582034028     
 soft         electrons   0.0000000000000000     
 total        electrons   1043.0637582034028     
 augmentation electrons   1043.0637582034028     
 soft         electrons   0.0000000000000000     
 total        electrons   1043.0637582034028     
 augmentation electrons   1043.0637582034028     
 soft         electrons   0.0000000000000000     
 total        electrons   1043.0637582034028     
 augmentation electrons   1043.0637582034028     
 soft         electrons   0.0000000000000000     
 total        electrons   1043.0637582034028     
 augmentation electrons   1043.0637582034028     
 soft         electrons   0.0000000000000000     
 total        electrons   1043.0637582034028     
 augmentation electrons   1043.0637582034028     
 soft         electrons   0.0000000000000000     
 total        electrons   1043.0637582034028     
 augmentation electrons   1043.0637582034028     
 soft         electrons   0.0000000000000000     
 total        electrons   1043.0637582034028     
 augmentation electrons   1043.0637582034028     
 soft         electrons   0.0000000000000000     
 total        electrons   1043.0637582034028     
 augmentation electrons   1043.0637582034028     
 soft         electrons   0.0000000000000000     
 total        electrons   1043.0637582034028     
 augmentation electrons   1043.0637582034028     
 soft         electrons   0.0000000000000000     
 augmentation electrons   1043.0637582034028     
 soft         electrons   0.0000000000000000     
 total        electrons   1043.0637582034028     
 augmentation electrons   1043.0637582034028     
 soft         electrons   0.0000000000000000     
 total        electrons   1043.0637582034028     
 augmentation electrons   1043.0637582034028     
 soft         electrons   0.0000000000000000     
 total        electrons   1043.0637582034028     
 augmentation electrons   1043.0637582034028     
 soft         electrons   0.0000000000000000     
 total        electrons   1043.0637582034028     
 augmentation electrons   1043.0637582034028     
 soft         electrons   0.0000000000000000     
 total        electrons   1043.0637582034028     
 augmentation electrons   1043.0637582034028     
 soft         electrons   0.0000000000000000     
 total        electrons   1043.0637582034028     
 augmentation electrons   1043.0637582034028     
 soft         electrons   0.0000000000000000     
 total        electrons   1043.0637582034028     
 augmentation electrons   1043.0637582034028     
 soft         electrons   0.0000000000000000     
 total        electrons   1043.0637582034028     
 augmentation electrons   1043.0637582034028     
 soft         electrons   0.0000000000000000     
 total        electrons   1043.0637582034028     
 augmentation electrons   1043.0637582034028     
 soft         electrons   0.0000000000000000     
 total        electrons   1043.0637582034028     
 augmentation electrons   1043.0637582034028     
 soft         electrons   0.0000000000000000     
 total        electrons   1043.0637582034028     
 augmentation electrons   1043.0637582034028     
 soft         electrons   0.0000000000000000     
 total        electrons   1043.0637582034028     
 augmentation electrons   1043.0637582034028     
 soft         electrons   0.0000000000000000     
 total        electrons   1043.0637582034028     
 augmentation electrons   1043.0637582034028     
 soft         electrons   0.0000000000000000     
 total        electrons   1043.0637582034028     
 augmentation electrons   1043.0637582034028     
 soft         electrons   0.0000000000000000     
 total        electrons   1043.0637582034028     
 augmentation electrons   1043.0637582034028     
 soft         electrons   0.0000000000000000     
 augmentation electrons   1043.0637582034028     
 soft         electrons   0.0000000000000000     
 total        electrons   1043.0637582034028     
 augmentation electrons   1043.0637582034028     
 soft         electrons   0.0000000000000000     
 total        electrons   1043.0637582034028     
 augmentation electrons   1043.0637582034028     
 soft         electrons   0.0000000000000000     
 total        electrons   1043.0637582034028     
 augmentation electrons   1043.0637582034028     
 soft         electrons   0.0000000000000000     
 total        electrons   1043.0637582034028     
 augmentation electrons   1043.0637582034028     
 soft         electrons   0.0000000000000000     
 total        electrons   1043.0637582034028     
 augmentation electrons   1043.0637582034028     
 soft         electrons   0.0000000000000000     
 total        electrons   1043.0637582034028     
 augmentation electrons   1043.0637582034028     
 soft         electrons   0.0000000000000000     
 total        electrons   1043.0637582034028     
 augmentation electrons   1043.0637582034028     
 soft         electrons   0.0000000000000000     
 total        electrons   1043.0637582034028     
 augmentation electrons   1043.0637582034028     
 soft         electrons   0.0000000000000000     
 total        electrons   1043.0637582034028     
 augmentation electrons   1043.0637582034028     
 soft         electrons   0.0000000000000000     
 total        electrons   1043.0637582034028     
 augmentation electrons   1043.0637582034028     
 soft         electrons   0.0000000000000000     
 total        electrons   1043.0637582034028     
 augmentation electrons   1043.0637582034028     
 soft         electrons   0.0000000000000000     
 total        electrons   1043.0637582034028     
 augmentation electrons   1043.0637582034028     
 soft         electrons   0.0000000000000000     
 total        electrons   1043.0637582034028     
 augmentation electrons   1043.0637582034028     
 soft         electrons   0.0000000000000000     
 total        electrons   1043.0637582034028     
 augmentation electrons   1043.0637582034028     
 soft         electrons   0.0000000000000000     
 total        electrons   1043.0637582034028     
 augmentation electrons   1043.0637582034028     
 soft         electrons   0.0000000000000000     
 total        electrons   1043.0637582034028     
 augmentation electrons   1043.0637582034028     
 soft         electrons   0.0000000000000000     
 total        electrons   1043.0637582034028     
 augmentation electrons   1043.0637582034028     
 soft         electrons   0.0000000000000000     
 total        electrons   1043.0637582034028     
 augmentation electrons   1043.0637582034028     
 soft         electrons   0.0000000000000000     
 total        electrons   1043.0637582034028     
 total        electrons   1043.0637582034028     
 total        electrons   1043.0637582034028     
 total        electrons   1043.0637582034028     
 entering main loop
       N       E                     dE             d eps       ncg     rms          rms(c)
DAV:   1     0.246816778597E+04    0.24682E+04   -0.10260E+05  5520   0.126E+03
DAV:   2    -0.219187485743E+03   -0.26874E+04   -0.24963E+04  6384   0.312E+02
DAV:   3    -0.653497703276E+03   -0.43431E+03   -0.41271E+03  7800   0.145E+02
DAV:   4    -0.691365469909E+03   -0.37868E+02   -0.36017E+02  8984   0.463E+01
DAV:   5    -0.693987171973E+03   -0.26217E+01   -0.25122E+01  9416   0.112E+01    0.150E+02
RMM:   6    -0.631668456596E+03    0.62319E+02   -0.12030E+03  7731   0.904E+01    0.761E+01
RMM:   7    -0.701109523997E+03   -0.69441E+02   -0.38446E+02  7588   0.394E+01    0.538E+01
RMM:   8    -0.610031610774E+03    0.91078E+02   -0.10876E+02  6558   0.296E+01    0.343E+01
RMM:   9    -0.600647196037E+03    0.93844E+01   -0.50131E+01  7221   0.156E+01    0.307E+01
RMM:  10    -0.581686129206E+03    0.18961E+02   -0.18980E+01  6560   0.106E+01    0.199E+01
RMM:  11    -0.580753643231E+03    0.93249E+00   -0.51853E+00  6665   0.590E+00    0.175E+01
RMM:  12    -0.580445264002E+03    0.30838E+00   -0.26059E+00  7261   0.277E+00    0.154E+01
RMM:  13    -0.580178962420E+03    0.26630E+00   -0.16350E+00  6320   0.288E+00    0.134E+01
RMM:  14    -0.579665231708E+03    0.51373E+00   -0.10578E+00  5801   0.345E+00    0.981E+00
RMM:  15    -0.579460739014E+03    0.20449E+00   -0.16677E+00  5826   0.404E+00    0.433E+00
RMM:  16    -0.579398789697E+03    0.61949E-01   -0.15057E+00  7384   0.178E+00    0.250E+00
RMM:  17    -0.579354236092E+03    0.44554E-01   -0.36420E-01  7383   0.926E-01    0.211E+00
RMM:  18    -0.579315986952E+03    0.38249E-01   -0.62540E-02  5970   0.792E-01    0.120E+00
RMM:  19    -0.579325606635E+03   -0.96197E-02   -0.11938E-01  6476   0.894E-01    0.153E+00
RMM:  20    -0.579304828857E+03    0.20778E-01   -0.67801E-02  6753   0.628E-01    0.444E-01
RMM:  21    -0.579306637231E+03   -0.18084E-02   -0.20820E-02  7177   0.209E-01    0.256E-01
RMM:  22    -0.579307229963E+03   -0.59273E-03   -0.42704E-03  6633   0.153E-01    0.184E-01
RMM:  23    -0.579307883436E+03   -0.65347E-03   -0.16051E-03  6791   0.693E-02    0.672E-02
RMM:  24    -0.579309603724E+03   -0.17203E-02   -0.13374E-03  6610   0.738E-02    0.107E-01
RMM:  25    -0.579310868015E+03   -0.12643E-02   -0.10814E-03  5599   0.980E-02    0.145E-01
RMM:  26    -0.579310878686E+03   -0.10671E-04   -0.36348E-04  5696   0.607E-02    0.254E-02
RMM:  27    -0.579311117516E+03   -0.23883E-03   -0.45211E-04  7298   0.286E-02    0.534E-02
RMM:  28    -0.579311264214E+03   -0.14670E-03   -0.15558E-04  5645   0.364E-02    0.307E-02
RMM:  29    -0.579311354305E+03   -0.90090E-04   -0.12474E-04  6637   0.126E-02    0.280E-02
RMM:  30    -0.579311427502E+03   -0.73198E-04   -0.20773E-05  4836   0.125E-02    0.507E-03
RMM:  31    -0.579311561796E+03   -0.13429E-03   -0.12079E-05  4316   0.665E-03    0.127E-02
RMM:  32    -0.579311773332E+03   -0.21154E-03   -0.34942E-05  5184   0.129E-02    0.905E-03
RMM:  33    -0.579311804998E+03   -0.31666E-04   -0.89796E-06  4261   0.110E-02    0.129E-02
RMM:  34    -0.579311836665E+03   -0.31667E-04   -0.65537E-06  4038   0.460E-03    0.374E-03
RMM:  35    -0.579311846626E+03   -0.99605E-05   -0.20503E-06  3749   0.276E-03    0.516E-03
RMM:  36    -0.579311852746E+03   -0.61202E-05   -0.13792E-06  3549   0.395E-03    0.128E-03
RMM:  37    -0.579311856192E+03   -0.34457E-05   -0.85223E-07  3303   0.169E-03    0.824E-04
RMM:  38    -0.579311857373E+03   -0.11818E-05   -0.35745E-07  3125   0.192E-03    0.629E-04
RMM:  39    -0.579311857579E+03   -0.20528E-06   -0.19036E-07  2157   0.101E-03
   1 F= -.57931186E+03 E0= -.57931047E+03  d E =-.579312E+03
 curvature:   0.00 expect dE= 0.000E+00 dE for cont linesearch  0.000E+00
 trial: gam= 0.00000 g(F)=  0.430E+01 g(S)=  0.000E+00 ort = 0.000E+00 (trialstep = 0.100E+01)
 search vector abs. value=  0.430E+01
 bond charge predicted
       N       E                     dE             d eps       ncg     rms          rms(c)
DAV:   1    -0.581307758076E+03   -0.19959E+01   -0.35161E+02  5520   0.378E+01    0.837E+00
RMM:   2    -0.583032542544E+03   -0.17248E+01   -0.11130E+01  7272   0.801E+00    0.101E+01
RMM:   3    -0.582873189424E+03    0.15935E+00   -0.34603E+00  6131   0.577E+00    0.899E+00
RMM:   4    -0.583434077640E+03   -0.56089E+00   -0.36020E+00  7199   0.385E+00    0.916E+00
RMM:   5    -0.581934041925E+03    0.15000E+01   -0.15598E+00  6151   0.378E+00    0.333E+00
RMM:   6    -0.581853508193E+03    0.80534E-01   -0.80304E-01  6626   0.233E+00    0.235E+00
RMM:   7    -0.581818531483E+03    0.34977E-01   -0.30297E-01  6631   0.135E+00    0.137E+00
RMM:   8    -0.581798060627E+03    0.20471E-01   -0.97715E-02  7042   0.611E-01    0.779E-01
RMM:   9    -0.581800599022E+03   -0.25384E-02   -0.38414E-02  6160   0.542E-01    0.794E-01
RMM:  10    -0.581793493557E+03    0.71055E-02   -0.15978E-02  6265   0.370E-01    0.331E-01
RMM:  11    -0.581793815215E+03   -0.32166E-03   -0.10592E-02  7372   0.154E-01    0.175E-01
RMM:  12    -0.581793530389E+03    0.28483E-03   -0.18085E-03  7316   0.683E-02    0.882E-02
RMM:  13    -0.581793764059E+03   -0.23367E-03   -0.11416E-03  7354   0.500E-02    0.463E-02
RMM:  14    -0.581793846558E+03   -0.82499E-04   -0.17663E-04  7125   0.249E-02    0.180E-02
RMM:  15    -0.581793917787E+03   -0.71229E-04   -0.60375E-05  6723   0.112E-02    0.101E-02
RMM:  16    -0.581794032818E+03   -0.11503E-03   -0.18806E-05  4880   0.827E-03    0.515E-03
RMM:  17    -0.581794131623E+03   -0.98805E-04   -0.23536E-05  5405   0.663E-03    0.525E-03
RMM:  18    -0.581794207349E+03   -0.75726E-04   -0.13770E-05  4105   0.544E-03    0.334E-03
RMM:  19    -0.581794247623E+03   -0.40274E-04   -0.11608E-05  4298   0.459E-03    0.197E-03
RMM:  20    -0.581794263647E+03   -0.16024E-04   -0.41983E-06  3796   0.344E-03    0.141E-03
RMM:  21    -0.581794270659E+03   -0.70118E-05   -0.17700E-06  3463   0.202E-03    0.756E-04
RMM:  22    -0.581794274102E+03   -0.34434E-05   -0.99469E-07  3347   0.170E-03    0.512E-04
RMM:  23    -0.581794275508E+03   -0.14063E-05   -0.50305E-07  2422   0.128E-03    0.382E-04
RMM:  24    -0.581794276109E+03   -0.60036E-06   -0.24781E-07  2514   0.118E-03
   2 F= -.58179428E+03 E0= -.58179459E+03  d E =-.248242E+01
 trial-energy change:   -2.482419  1 .order   -2.332394   -4.295085   -0.369702
 step:   1.0755(harm=  1.0942)  dis= 0.12500  next Energy=  -581.808306 (dE=-0.250E+01)
 bond charge predicted
       N       E                     dE             d eps       ncg     rms          rms(c)
DAV:   1    -0.581806804706E+03   -0.12529E-01   -0.20299E+00  5840   0.284E+00    0.644E-01
RMM:   2    -0.581821962077E+03   -0.15157E-01   -0.70908E-02  6808   0.670E-01    0.112E+00
RMM:   3    -0.581812080226E+03    0.98819E-02   -0.18733E-02  6309   0.423E-01    0.569E-01
RMM:   4    -0.581815140436E+03   -0.30602E-02   -0.22222E-02  7182   0.285E-01    0.545E-01
RMM:   5    -0.581809385175E+03    0.57553E-02   -0.89341E-03  6446   0.266E-01    0.246E-01
RMM:   6    -0.581808826496E+03    0.55868E-03   -0.40468E-03  6365   0.182E-01    0.205E-01
RMM:   7    -0.581808540498E+03    0.28600E-03   -0.16528E-03  6084   0.121E-01    0.119E-01
RMM:   8    -0.581808362439E+03    0.17806E-03   -0.56640E-04  6595   0.521E-02    0.443E-02
RMM:   9    -0.581808362434E+03    0.49440E-08   -0.19386E-04  6460   0.302E-02    0.364E-02
RMM:  10    -0.581808348458E+03    0.13976E-04   -0.63644E-05  6631   0.169E-02    0.127E-02
RMM:  11    -0.581808348624E+03   -0.16642E-06   -0.28901E-05  6089   0.784E-03    0.845E-03
RMM:  12    -0.581808349209E+03   -0.58484E-06   -0.33858E-06  3795   0.596E-03
   3 F= -.58180835E+03 E0= -.58180838E+03  d E =-.249649E+01
 curvature:  -0.53 expect dE=-0.345E+00 dE for cont linesearch -0.225E-06
 trial: gam= 0.15293 g(F)=  0.655E+00 g(S)=  0.000E+00 ort =-0.135E-02 (trialstep = 0.102E+01)
 search vector abs. value=  0.756E+00
 bond charge predicted
       N       E                     dE             d eps       ncg     rms          rms(c)
DAV:   1    -0.582130638549E+03   -0.32229E+00   -0.36470E+01  5528   0.138E+01    0.289E+00
RMM:   2    -0.582383510695E+03   -0.25287E+00   -0.13953E+00  6818   0.346E+00    0.416E+00
RMM:   3    -0.582285904821E+03    0.97606E-01   -0.47472E-01  6540   0.214E+00    0.299E+00
RMM:   4    -0.582327312101E+03   -0.41407E-01   -0.43941E-01  6728   0.155E+00    0.318E+00
RMM:   5    -0.582159455493E+03    0.16786E+00   -0.17495E-01  5961   0.141E+00    0.773E-01
RMM:   6    -0.582164766692E+03   -0.53112E-02   -0.83778E-02  6841   0.661E-01    0.798E-01
RMM:   7    -0.582156382754E+03    0.83839E-02   -0.24282E-02  6098   0.481E-01    0.364E-01
RMM:   8    -0.582154983134E+03    0.13996E-02   -0.85658E-03  7200   0.186E-01    0.167E-01
RMM:   9    -0.582154955589E+03    0.27545E-04   -0.28000E-03  6817   0.114E-01    0.137E-01
RMM:  10    -0.582154797421E+03    0.15817E-03   -0.10510E-03  6946   0.728E-02    0.601E-02
RMM:  11    -0.582154805621E+03   -0.81996E-05   -0.43123E-04  7274   0.323E-02    0.436E-02
RMM:  12    -0.582154795788E+03    0.98331E-05   -0.90859E-05  6861   0.187E-02    0.135E-02
RMM:  13    -0.582154816989E+03   -0.21201E-04   -0.27980E-05  6126   0.741E-03    0.707E-03
RMM:  14    -0.582154825503E+03   -0.85148E-05   -0.40804E-06  3996   0.539E-03    0.347E-03
RMM:  15    -0.582154834129E+03   -0.86253E-05   -0.10915E-06  3417   0.330E-03    0.163E-03
RMM:  16    -0.582154847748E+03   -0.13619E-04   -0.14608E-06  3473   0.232E-03    0.105E-03
RMM:  17    -0.582154852625E+03   -0.48777E-05   -0.49476E-07  3382   0.234E-03    0.790E-04
RMM:  18    -0.582154861023E+03   -0.83979E-05   -0.70927E-07  3298   0.141E-03    0.565E-04
RMM:  19    -0.582154867786E+03   -0.67629E-05   -0.60548E-07  3196   0.149E-03    0.419E-04
RMM:  20    -0.582154873277E+03   -0.54910E-05   -0.68959E-07  2808   0.125E-03    0.435E-04
RMM:  21    -0.582154874747E+03   -0.14699E-05   -0.29368E-07  2476   0.127E-03    0.179E-04
RMM:  22    -0.582154875429E+03   -0.68214E-06   -0.19977E-07  2131   0.888E-04
   4 F= -.58215488E+03 E0= -.58215524E+03  d E =-.346526E+00
 trial-energy change:   -0.346526  1 .order   -0.352033   -0.665182   -0.038885
 step:   1.0819(harm=  1.0781)  dis= 0.03282  next Energy=  -582.156153 (dE=-0.348E+00)
 bond charge predicted
       N       E                     dE             d eps       ncg     rms          rms(c)
DAV:   1    -0.582156060159E+03   -0.11854E-02   -0.15709E-01  5888   0.903E-01    0.187E-01
RMM:   2    -0.582157249649E+03   -0.11895E-02   -0.61141E-03  6663   0.235E-01    0.294E-01
RMM:   3    -0.582156643369E+03    0.60628E-03   -0.19039E-03  6620   0.134E-01    0.185E-01
RMM:   4    -0.582156829232E+03   -0.18586E-03   -0.18874E-03  6679   0.102E-01    0.199E-01
RMM:   5    -0.582156176131E+03    0.65310E-03   -0.74239E-04  5981   0.922E-02    0.516E-02
RMM:   6    -0.582156200554E+03   -0.24423E-04   -0.36170E-04  6679   0.464E-02    0.589E-02
RMM:   7    -0.582156160815E+03    0.39738E-04   -0.10905E-04  5939   0.336E-02    0.243E-02
RMM:   8    -0.582156155770E+03    0.50453E-05   -0.39560E-05  6426   0.123E-02    0.110E-02
RMM:   9    -0.582156154892E+03    0.87791E-06   -0.98247E-06  4481   0.774E-03
   5 F= -.58215615E+03 E0= -.58215657E+03  d E =-.347806E+00
 curvature:  -0.62 expect dE=-0.936E-01 dE for cont linesearch -0.947E-07
 trial: gam= 0.21216 g(F)=  0.151E+00 g(S)=  0.000E+00 ort =-0.340E-03 (trialstep = 0.103E+01)
 search vector abs. value=  0.185E+00
 bond charge predicted
       N       E                     dE             d eps       ncg     rms          rms(c)
DAV:   1    -0.582256704019E+03   -0.10055E+00   -0.11229E+01  5536   0.687E+00    0.141E+00
RMM:   2    -0.582270233936E+03   -0.13530E-01   -0.25904E-01  5833   0.180E+00    0.106E+00
RMM:   3    -0.582288696302E+03   -0.18462E-01   -0.10619E-01  6938   0.889E-01    0.120E+00
RMM:   4    -0.582295998238E+03   -0.73019E-02   -0.63159E-02  6566   0.714E-01    0.147E+00
RMM:   5    -0.582273280050E+03    0.22718E-01   -0.38082E-02  6168   0.588E-01    0.928E-01
RMM:   6    -0.582263545703E+03    0.97343E-02   -0.15022E-02  6344   0.354E-01    0.246E-01
RMM:   7    -0.582264313368E+03   -0.76767E-03   -0.80094E-03  6864   0.201E-01    0.308E-01
RMM:   8    -0.582262778020E+03    0.15353E-02   -0.20862E-03  6150   0.136E-01    0.935E-02
RMM:   9    -0.582262793170E+03   -0.15150E-04   -0.11283E-03  7094   0.583E-02    0.594E-02
RMM:  10    -0.582262800708E+03   -0.75372E-05   -0.39474E-04  7145   0.399E-02    0.447E-02
RMM:  11    -0.582262791830E+03    0.88778E-05   -0.15384E-04  7127   0.241E-02    0.172E-02
RMM:  12    -0.582262784899E+03    0.69304E-05   -0.47535E-05  6420   0.963E-03    0.693E-03
RMM:  13    -0.582262789012E+03   -0.41123E-05   -0.84393E-06  4839   0.595E-03    0.402E-03
RMM:  14    -0.582262791753E+03   -0.27409E-05   -0.13371E-06  3416   0.390E-03    0.250E-03
RMM:  15    -0.582262795240E+03   -0.34876E-05   -0.66011E-07  3361   0.284E-03    0.139E-03
RMM:  16    -0.582262798210E+03   -0.29692E-05   -0.36249E-07  3353   0.189E-03    0.757E-04
RMM:  17    -0.582262800939E+03   -0.27296E-05   -0.20542E-07  3302   0.145E-03    0.491E-04
RMM:  18    -0.582262803407E+03   -0.24675E-05   -0.13046E-07  2758   0.105E-03    0.289E-04
RMM:  19    -0.582262806264E+03   -0.28573E-05   -0.10021E-07  2376   0.892E-04    0.295E-04
RMM:  20    -0.582262809556E+03   -0.32924E-05   -0.92090E-08  1983   0.786E-04    0.247E-04
RMM:  21    -0.582262811029E+03   -0.14726E-05   -0.76144E-08  1870   0.742E-04    0.197E-04
RMM:  22    -0.582262811442E+03   -0.41317E-06   -0.55143E-08  1792   0.696E-04
   6 F= -.58226281E+03 E0= -.58226368E+03  d E =-.106657E+00
 trial-energy change:   -0.106657  1 .order   -0.107156   -0.155303   -0.059009
 step:   1.6927(harm=  1.6587)  dis= 0.03052  next Energy=  -582.281733 (dE=-0.126E+00)
 bond charge predicted
       N       E                     dE             d eps       ncg     rms          rms(c)
DAV:   1    -0.582278640228E+03   -0.15829E-01   -0.46627E+00  5528   0.442E+00    0.898E-01
RMM:   2    -0.582284045285E+03   -0.54051E-02   -0.10580E-01  5812   0.116E+00    0.669E-01
RMM:   3    -0.582289545304E+03   -0.55000E-02   -0.43447E-02  6823   0.587E-01    0.725E-01
RMM:   4    -0.582284788298E+03    0.47570E-02   -0.24408E-02  6088   0.500E-01    0.487E-01
RMM:   5    -0.582285762348E+03   -0.97405E-03   -0.10452E-02  6678   0.264E-01    0.598E-01
RMM:   6    -0.582282082356E+03    0.36800E-02   -0.39162E-03  6174   0.195E-01    0.198E-01
RMM:   7    -0.582282040640E+03    0.41716E-04   -0.35460E-03  7262   0.105E-01    0.193E-01
RMM:   8    -0.582281367620E+03    0.67302E-03   -0.91231E-04  6299   0.855E-02    0.574E-02
RMM:   9    -0.582281384321E+03   -0.16701E-04   -0.49857E-04  7129   0.385E-02    0.413E-02
RMM:  10    -0.582281379887E+03    0.44331E-05   -0.14073E-04  6913   0.249E-02    0.256E-02
RMM:  11    -0.582281377662E+03    0.22253E-05   -0.51238E-05  6854   0.139E-02    0.981E-03
RMM:  12    -0.582281376136E+03    0.15264E-05   -0.15457E-05  5012   0.654E-03    0.501E-03
RMM:  13    -0.582281378804E+03   -0.26681E-05   -0.25399E-06  3675   0.416E-03    0.265E-03
RMM:  14    -0.582281380687E+03   -0.18834E-05   -0.84719E-07  3367   0.352E-03    0.147E-03
RMM:  15    -0.582281382221E+03   -0.15337E-05   -0.43207E-07  3352   0.195E-03    0.868E-04
RMM:  16    -0.582281384231E+03   -0.20096E-05   -0.24457E-07  3318   0.157E-03    0.473E-04
RMM:  17    -0.582281385649E+03   -0.14181E-05   -0.15507E-07  2856   0.109E-03    0.314E-04
RMM:  18    -0.582281386401E+03   -0.75216E-06   -0.10141E-07  2281   0.907E-04
   7 F= -.58228139E+03 E0= -.58228267E+03  d E =-.125232E+00
 curvature:  -1.01 expect dE=-0.603E-01 dE for cont linesearch -0.262E-05
 trial: gam= 0.40363 g(F)=  0.595E-01 g(S)=  0.000E+00 ort =-0.692E-03 (trialstep = 0.116E+01)
 search vector abs. value=  0.891E-01
 bond charge predicted
       N       E                     dE             d eps       ncg     rms          rms(c)
DAV:   1    -0.582321638588E+03   -0.40253E-01   -0.77037E+00  5520   0.584E+00    0.107E+00
RMM:   2    -0.582357164370E+03   -0.35526E-01   -0.19797E-01  5654   0.182E+00    0.167E+00
RMM:   3    -0.582347512725E+03    0.96516E-02   -0.77923E-02  6594   0.914E-01    0.118E+00
RMM:   4    -0.582349221784E+03   -0.17091E-02   -0.41432E-02  7314   0.388E-01    0.994E-01
RMM:   5    -0.582330300676E+03    0.18921E-01   -0.20680E-02  6149   0.423E-01    0.480E-01
RMM:   6    -0.582330344793E+03   -0.44117E-04   -0.13635E-02  6455   0.324E-01    0.395E-01
RMM:   7    -0.582328274931E+03    0.20699E-02   -0.51656E-03  5967   0.231E-01    0.147E-01
RMM:   8    -0.582327899822E+03    0.37511E-03   -0.17354E-03  7288   0.744E-02    0.622E-02
RMM:   9    -0.582327910563E+03   -0.10740E-04   -0.55737E-04  7155   0.487E-02    0.582E-02
RMM:  10    -0.582327886695E+03    0.23867E-04   -0.18981E-04  6322   0.391E-02    0.382E-02
RMM:  11    -0.582327868194E+03    0.18502E-04   -0.62070E-05  6347   0.205E-02    0.147E-02
RMM:  12    -0.582327868203E+03   -0.93714E-08   -0.37171E-05  6117   0.850E-03    0.830E-03
RMM:  13    -0.582327872188E+03   -0.39846E-05   -0.52474E-06  4098   0.604E-03    0.331E-03
RMM:  14    -0.582327875247E+03   -0.30596E-05   -0.20213E-06  3641   0.381E-03    0.142E-03
RMM:  15    -0.582327877172E+03   -0.19246E-05   -0.69900E-07  3372   0.288E-03    0.857E-04
RMM:  16    -0.582327879939E+03   -0.27672E-05   -0.39890E-07  3351   0.196E-03    0.675E-04
RMM:  17    -0.582327883971E+03   -0.40321E-05   -0.30848E-07  3264   0.149E-03    0.528E-04
RMM:  18    -0.582327885791E+03   -0.18196E-05   -0.19660E-07  2821   0.119E-03    0.417E-04
RMM:  19    -0.582327889680E+03   -0.38890E-05   -0.26820E-07  2576   0.101E-03    0.318E-04
RMM:  20    -0.582327891623E+03   -0.19436E-05   -0.17946E-07  2412   0.107E-03    0.192E-04
RMM:  21    -0.582327892587E+03   -0.96333E-06   -0.12326E-07  1921   0.810E-04
   8 F= -.58232789E+03 E0= -.58232842E+03  d E =-.465062E-01
 trial-energy change:   -0.046506  1 .order   -0.046670   -0.068812   -0.024528
 step:   1.8278(harm=  1.8045)  dis= 0.02117  next Energy=  -582.334900 (dE=-0.535E-01)
 bond charge predicted
       N       E                     dE             d eps       ncg     rms          rms(c)
DAV:   1    -0.582332568443E+03   -0.46768E-02   -0.25368E+00  5520   0.335E+00    0.615E-01
RMM:   2    -0.582344721291E+03   -0.12153E-01   -0.66986E-02  5639   0.106E+00    0.981E-01
RMM:   3    -0.582341331626E+03    0.33897E-02   -0.25684E-02  6604   0.525E-01    0.683E-01
RMM:   4    -0.582341557360E+03   -0.22573E-03   -0.13762E-02  7335   0.222E-01    0.565E-01
RMM:   5    -0.582335454548E+03    0.61028E-02   -0.68048E-03  6143   0.243E-01    0.273E-01
RMM:   6    -0.582335535751E+03   -0.81203E-04   -0.46128E-03  6469   0.187E-01    0.233E-01
RMM:   7    -0.582334799509E+03    0.73624E-03   -0.17104E-03  5959   0.134E-01    0.822E-02
RMM:   8    -0.582334687737E+03    0.11177E-03   -0.59223E-04  7310   0.430E-02    0.367E-02
RMM:   9    -0.582334696268E+03   -0.85306E-05   -0.18612E-04  6846   0.318E-02    0.405E-02
RMM:  10    -0.582334679496E+03    0.16772E-04   -0.69624E-05  6356   0.236E-02    0.188E-02
RMM:  11    -0.582334675697E+03    0.37996E-05   -0.24492E-05  5662   0.964E-03    0.804E-03
RMM:  12    -0.582334675319E+03    0.37712E-06   -0.93441E-06  4638   0.519E-03
   9 F= -.58233468E+03 E0= -.58233479E+03  d E =-.532889E-01
 curvature:  -1.36 expect dE=-0.475E-01 dE for cont linesearch -0.508E-05
 trial: gam= 0.59682 g(F)=  0.350E-01 g(S)=  0.000E+00 ort =-0.578E-03 (trialstep = 0.129E+01)
 search vector abs. value=  0.661E-01
 bond charge predicted
       N       E                     dE             d eps       ncg     rms          rms(c)
DAV:   1    -0.582346081934E+03   -0.11406E-01   -0.77270E+00  5520   0.582E+00    0.107E+00
RMM:   2    -0.582393777739E+03   -0.47696E-01   -0.21361E-01  5715   0.182E+00    0.194E+00
RMM:   3    -0.582367063717E+03    0.26714E-01   -0.71937E-02  6548   0.889E-01    0.106E+00
RMM:   4    -0.582371982105E+03   -0.49184E-02   -0.41705E-02  6986   0.460E-01    0.106E+00
RMM:   5    -0.582353436775E+03    0.18545E-01   -0.22295E-02  6166   0.451E-01    0.434E-01
RMM:   6    -0.582353606601E+03   -0.16983E-03   -0.10842E-02  6561   0.280E-01    0.327E-01
RMM:   7    -0.582351925669E+03    0.16809E-02   -0.49556E-03  6077   0.219E-01    0.170E-01
RMM:   8    -0.582351517441E+03    0.40823E-03   -0.18294E-03  7057   0.930E-02    0.606E-02
RMM:   9    -0.582351575291E+03   -0.57851E-04   -0.65012E-04  6844   0.501E-02    0.686E-02
RMM:  10    -0.582351516639E+03    0.58652E-04   -0.16532E-04  6489   0.337E-02    0.253E-02
RMM:  11    -0.582351516248E+03    0.39143E-06   -0.77703E-05  6730   0.126E-02    0.134E-02
RMM:  12    -0.582351518993E+03   -0.27453E-05   -0.28887E-05  6314   0.931E-03    0.712E-03
RMM:  13    -0.582351523183E+03   -0.41901E-05   -0.41132E-06  3962   0.546E-03    0.299E-03
RMM:  14    -0.582351526842E+03   -0.36587E-05   -0.19309E-06  3628   0.357E-03    0.166E-03
RMM:  15    -0.582351529326E+03   -0.24841E-05   -0.74717E-07  3362   0.302E-03    0.119E-03
RMM:  16    -0.582351533786E+03   -0.44602E-05   -0.48748E-07  3369   0.212E-03    0.999E-04
RMM:  17    -0.582351536907E+03   -0.31214E-05   -0.32436E-07  3251   0.156E-03    0.603E-04
RMM:  18    -0.582351540388E+03   -0.34810E-05   -0.28399E-07  2866   0.125E-03    0.581E-04
RMM:  19    -0.582351546711E+03   -0.63228E-05   -0.67425E-07  2698   0.120E-03    0.431E-04
RMM:  20    -0.582351547534E+03   -0.82310E-06   -0.18097E-07  2335   0.122E-03
  10 F= -.58235155E+03 E0= -.58235161E+03  d E =-.168722E-01
 trial-energy change:   -0.016872  1 .order   -0.017089   -0.044894    0.010717
 step:   1.0404(harm=  1.0451)  dis= 0.00931  next Energy=  -582.352602 (dE=-0.179E-01)
 bond charge predicted
       N       E                     dE             d eps       ncg     rms          rms(c)
DAV:   1    -0.582352368659E+03   -0.82195E-03   -0.29806E-01  5552   0.114E+00    0.212E-01
RMM:   2    -0.582354260717E+03   -0.18921E-02   -0.84058E-03  5691   0.364E-01    0.388E-01
RMM:   3    -0.582353247939E+03    0.10128E-02   -0.27733E-03  6566   0.174E-01    0.216E-01
RMM:   4    -0.582353342161E+03   -0.94223E-04   -0.16199E-03  6947   0.912E-02    0.203E-01
RMM:   5    -0.582352675010E+03    0.66715E-03   -0.84421E-04  6175   0.879E-02    0.861E-02
RMM:   6    -0.582352686789E+03   -0.11779E-04   -0.42046E-04  6520   0.562E-02    0.664E-02
RMM:   7    -0.582352622052E+03    0.64738E-04   -0.18975E-04  6014   0.437E-02    0.335E-02
RMM:   8    -0.582352607507E+03    0.14545E-04   -0.70312E-05  6695   0.192E-02    0.123E-02
RMM:   9    -0.582352610575E+03   -0.30679E-05   -0.25952E-05  5262   0.106E-02    0.135E-02
RMM:  10    -0.582352609000E+03    0.15751E-05   -0.60976E-06  4100   0.720E-03    0.459E-03
RMM:  11    -0.582352609387E+03   -0.38772E-06   -0.24865E-06  3729   0.364E-03
  11 F= -.58235261E+03 E0= -.58235268E+03  d E =-.179341E-01
 curvature:  -1.00 expect dE=-0.382E-02 dE for cont linesearch -0.525E-06
 trial: gam= 0.10159 g(F)=  0.384E-02 g(S)=  0.000E+00 ort = 0.187E-03 (trialstep = 0.124E+01)
 search vector abs. value=  0.456E-02
 bond charge predicted
       N       E                     dE             d eps       ncg     rms          rms(c)
DAV:   1    -0.582355002420E+03   -0.23934E-02   -0.44072E-01  5520   0.141E+00    0.221E-01
RMM:   2    -0.582356761637E+03   -0.17592E-02   -0.10198E-02  5814   0.370E-01    0.304E-01
RMM:   3    -0.582356395574E+03    0.36606E-03   -0.33780E-03  7198   0.149E-01    0.236E-01
RMM:   4    -0.582356010166E+03    0.38541E-03   -0.19449E-03  6769   0.109E-01    0.162E-01
RMM:   5    -0.582355694731E+03    0.31544E-03   -0.10045E-03  5854   0.104E-01    0.892E-02
RMM:   6    -0.582355638504E+03    0.56227E-04   -0.42504E-04  6661   0.522E-02    0.430E-02
RMM:   7    -0.582355605792E+03    0.32712E-04   -0.13849E-04  7110   0.223E-02    0.189E-02
RMM:   8    -0.582355601621E+03    0.41706E-05   -0.34419E-05  6120   0.121E-02    0.109E-02
RMM:   9    -0.582355600797E+03    0.82375E-06   -0.11000E-05  4624   0.766E-03    0.602E-03
RMM:  10    -0.582355600327E+03    0.47040E-06   -0.33565E-06  3873   0.413E-03
  12 F= -.58235560E+03 E0= -.58235570E+03  d E =-.299094E-02
 trial-energy change:   -0.002991  1 .order   -0.003008   -0.004800   -0.001216
 step:   1.6831(harm=  1.6660)  dis= 0.00656  next Energy=  -582.355814 (dE=-0.321E-02)
 bond charge predicted
       N       E                     dE             d eps       ncg     rms          rms(c)
DAV:   1    -0.582355735175E+03   -0.13438E-03   -0.55048E-02  5680   0.497E-01    0.787E-02
RMM:   2    -0.582355960339E+03   -0.22516E-03   -0.13217E-03  5838   0.132E-01    0.111E-01
RMM:   3    -0.582355904243E+03    0.56096E-04   -0.42116E-04  7155   0.539E-02    0.823E-02
RMM:   4    -0.582355866305E+03    0.37939E-04   -0.25361E-04  6676   0.399E-02    0.621E-02
RMM:   5    -0.582355821261E+03    0.45044E-04   -0.13841E-04  5775   0.393E-02    0.330E-02
RMM:   6    -0.582355814176E+03    0.70849E-05   -0.58033E-05  6588   0.176E-02    0.171E-02
RMM:   7    -0.582355812100E+03    0.20760E-05   -0.22643E-05  5462   0.118E-02    0.173E-02
RMM:   8    -0.582355807825E+03    0.42746E-05   -0.67621E-06  4153   0.851E-03    0.465E-03
RMM:   9    -0.582355807868E+03   -0.43225E-07   -0.37610E-06  3883   0.371E-03
  13 F= -.58235581E+03 E0= -.58235592E+03  d E =-.319848E-02
 curvature:  -0.98 expect dE=-0.109E-02 dE for cont linesearch -0.163E-06
 trial: gam= 0.30077 g(F)=  0.111E-02 g(S)=  0.000E+00 ort =-0.275E-04 (trialstep = 0.133E+01)
 search vector abs. value=  0.151E-02
 bond charge predicted
       N       E                     dE             d eps       ncg     rms          rms(c)
DAV:   1    -0.582356125618E+03   -0.31779E-03   -0.15953E-01  5520   0.865E-01    0.145E-01
RMM:   2    -0.582357839090E+03   -0.17135E-02   -0.68512E-03  6021   0.287E-01    0.366E-01
RMM:   3    -0.582356531321E+03    0.13078E-02   -0.14667E-03  6489   0.129E-01    0.124E-01
RMM:   4    -0.582356553359E+03   -0.22037E-04   -0.84182E-04  6922   0.656E-02    0.110E-01
RMM:   5    -0.582356391509E+03    0.16185E-03   -0.37464E-04  6531   0.522E-02    0.688E-02
RMM:   6    -0.582356424376E+03   -0.32867E-04   -0.30390E-04  6122   0.525E-02    0.773E-02
RMM:   7    -0.582356343421E+03    0.80955E-04   -0.12823E-04  5782   0.395E-02    0.241E-02
RMM:   8    -0.582356338764E+03    0.46568E-05   -0.46465E-05  6348   0.143E-02    0.110E-02
RMM:   9    -0.582356337761E+03    0.10039E-05   -0.13223E-05  4733   0.914E-03    0.734E-03
RMM:  10    -0.582356337452E+03    0.30840E-06   -0.48771E-06  3930   0.565E-03
  14 F= -.58235634E+03 E0= -.58235647E+03  d E =-.529584E-03
 trial-energy change:   -0.000530  1 .order   -0.000526   -0.001471    0.000419
 step:   1.0367(harm=  1.0367)  dis= 0.00183  next Energy=  -582.356381 (dE=-0.573E-03)
 bond charge predicted
       N       E                     dE             d eps       ncg     rms          rms(c)
DAV:   1    -0.582356370609E+03   -0.32849E-04   -0.77906E-03  5728   0.191E-01    0.315E-02
RMM:   2    -0.582356454617E+03   -0.84008E-04   -0.33276E-04  6061   0.626E-02    0.797E-02
RMM:   3    -0.582356391535E+03    0.63081E-04   -0.70271E-05  6385   0.282E-02    0.268E-02
RMM:   4    -0.582356392677E+03   -0.11419E-05   -0.39963E-05  6311   0.145E-02    0.239E-02
RMM:   5    -0.582356385255E+03    0.74219E-05   -0.16184E-05  5438   0.116E-02    0.148E-02
RMM:   6    -0.582356387067E+03   -0.18121E-05   -0.14007E-05  5189   0.115E-02    0.165E-02
RMM:   7    -0.582356383499E+03    0.35689E-05   -0.56232E-06  4077   0.887E-03    0.538E-03
RMM:   8    -0.582356383285E+03    0.21353E-06   -0.14268E-06  3467   0.421E-03
  15 F= -.58235638E+03 E0= -.58235651E+03  d E =-.575417E-03
 curvature:  -0.71 expect dE=-0.146E-03 dE for cont linesearch -0.393E-07
 trial: gam= 0.17463 g(F)=  0.206E-03 g(S)=  0.000E+00 ort = 0.915E-05 (trialstep = 0.127E+01)
 search vector abs. value=  0.255E-03
 reached required accuracy - stopping structural energy minimisation
 augmentation electrons   31.368416988825672     
 soft         electrons   250.75931007639090     
 augmentation electrons   31.368416988825672     
 soft         electrons   250.75931007639090     
 augmentation electrons   31.368416988825672     
 soft         electrons   250.75931007639090     
 augmentation electrons   31.368416988825672     
 soft         electrons   250.75931007639090     
 augmentation electrons   31.368416988825672     
 soft         electrons   250.75931007639090     
 augmentation electrons   31.368416988825672     
 soft         electrons   250.75931007639090     
 augmentation electrons   31.368416988825672     
 soft         electrons   250.75931007639090     
 augmentation electrons   31.368416988825672     
 soft         electrons   250.75931007639090     
 augmentation electrons   31.368416988825672     
 soft         electrons   250.75931007639090     
 augmentation electrons   31.368416988825672     
 soft         electrons   250.75931007639090     
 augmentation electrons   31.368416988825672     
 soft         electrons   250.75931007639090     
 augmentation electrons   31.368416988825672     
 soft         electrons   250.75931007639090     
 augmentation electrons   31.368416988825672     
 soft         electrons   250.75931007639090     
 augmentation electrons   31.368416988825672     
 soft         electrons   250.75931007639090     
 augmentation electrons   31.368416988825672     
 soft         electrons   250.75931007639090     
 augmentation electrons   31.368416988825672     
 soft         electrons   250.75931007639090     
 augmentation electrons   31.368416988825672     
 soft         electrons   250.75931007639090     
 augmentation electrons   31.368416988825672     
 soft         electrons   250.75931007639090     
 augmentation electrons   31.368416988825672     
 soft         electrons   250.75931007639090     
 augmentation electrons   31.368416988825672     
 soft         electrons   250.75931007639090     
 augmentation electrons   31.368416988825672     
 soft         electrons   250.75931007639090     
 augmentation electrons   31.368416988825672     
 soft         electrons   250.75931007639090     
 augmentation electrons   31.368416988825672     
 soft         electrons   250.75931007639090     
 augmentation electrons   31.368416988825672     
 soft         electrons   250.75931007639090     
 augmentation electrons   31.368416988825672     
 soft         electrons   250.75931007639090     
 augmentation electrons   31.368416988825672     
 soft         electrons   250.75931007639090     
 augmentation electrons   31.368416988825672     
 soft         electrons   250.75931007639090     
 augmentation electrons   31.368416988825672     
 soft         electrons   250.75931007639090     
 augmentation electrons   31.368416988825672     
 soft         electrons   250.75931007639090     
 augmentation electrons   31.368416988825672     
 soft         electrons   250.75931007639090     
 augmentation electrons   31.368416988825672     
 soft         electrons   250.75931007639090     
 augmentation electrons   31.368416988825672     
 soft         electrons   250.75931007639090     
 augmentation electrons   31.368416988825672     
 soft         electrons   250.75931007639090     
 augmentation electrons   31.368416988825672     
 soft         electrons   250.75931007639090     
 augmentation electrons   31.368416988825672     
 soft         electrons   250.75931007639090     
 augmentation electrons   31.368416988825672     
 soft         electrons   250.75931007639090     
 augmentation electrons   31.368416988825672     
 soft         electrons   250.75931007639090     
 augmentation electrons   31.368416988825672     
 soft         electrons   250.75931007639090     
 augmentation electrons   31.368416988825672     
 soft         electrons   250.75931007639090     
 augmentation electrons   31.368416988825672     
 soft         electrons   250.75931007639090     
 augmentation electrons   31.368416988825672     
 soft         electrons   250.75931007639090     
 augmentation electrons   31.368416988825672     
 soft         electrons   250.75931007639090     
 augmentation electrons   31.368416988825672     
 soft         electrons   250.75931007639090     
 augmentation electrons   31.368416988825672     
 soft         electrons   250.75931007639090     
 augmentation electrons   31.368416988825672     
 soft         electrons   250.75931007639090     
 augmentation electrons   31.368416988825672     
 soft         electrons   250.75931007639090     
 augmentation electrons   31.368416988825672     
 soft         electrons   250.75931007639090     
 augmentation electrons   31.368416988825672     
 soft         electrons   250.75931007639090     
 augmentation electrons   31.368416988825672     
 soft         electrons   250.75931007639090     
 augmentation electrons   31.368416988825672     
 soft         electrons   250.75931007639090     
 augmentation electrons   31.368416988825672     
 soft         electrons   250.75931007639090     
 augmentation electrons   31.368416988825672     
 soft         electrons   250.75931007639090     
 augmentation electrons   31.368416988825672     
 soft         electrons   250.75931007639090     
 augmentation electrons   31.368416988825672     
 soft         electrons   250.75931007639090     
 augmentation electrons   31.368416988825672     
 soft         electrons   250.75931007639090     
 augmentation electrons   31.368416988825672     
 soft         electrons   250.75931007639090     
 augmentation electrons   31.368416988825672     
 soft         electrons   250.75931007639090     
 augmentation electrons   31.368416988825672     
 soft         electrons   250.75931007639090     
 augmentation electrons   31.368416988825672     
 soft         electrons   250.75931007639090     
 augmentation electrons   31.368416988825672     
 soft         electrons   250.75931007639090     
 augmentation electrons   31.368416988825672     
 soft         electrons   250.75931007639090     
 augmentation electrons   31.368416988825672     
 soft         electrons   250.75931007639090     
 augmentation electrons   31.368416988825672     
 soft         electrons   250.75931007639090     
 augmentation electrons   31.368416988825672     
 soft         electrons   250.75931007639090     
 augmentation electrons   31.368416988825672     
 soft         electrons   250.75931007639090     
 augmentation electrons   31.368416988825672     
 soft         electrons   250.75931007639090     
 augmentation electrons   31.368416988825672     
 soft         electrons   250.75931007639090     
 augmentation electrons   31.368416988825672     
 soft         electrons   250.75931007639090     
 augmentation electrons   31.368416988825672     
 soft         electrons   250.75931007639090     
 augmentation electrons   31.368416988825672     
 soft         electrons   250.75931007639090     
 augmentation electrons   31.368416988825672     
 soft         electrons   250.75931007639090     
 augmentation electrons   31.368416988825672     
 soft         electrons   250.75931007639090     
 total        electrons   282.12772706521656     
 total        electrons   282.12772706521656     
 total        electrons   282.12772706521656     
 total        electrons   282.12772706521656     
 total        electrons   282.12772706521656     
 total        electrons   282.12772706521656     
 total        electrons   282.12772706521656     
 total        electrons   282.12772706521656     
 total        electrons   282.12772706521656     
 total        electrons   282.12772706521656     
 total        electrons   282.12772706521656     
 total        electrons   282.12772706521656     
 total        electrons   282.12772706521656     
 total        electrons   282.12772706521656     
 total        electrons   282.12772706521656     
 total        electrons   282.12772706521656     
 total        electrons   282.12772706521656     
 total        electrons   282.12772706521656     
 total        electrons   282.12772706521656     
 total        electrons   282.12772706521656     
 total        electrons   282.12772706521656     
 total        electrons   282.12772706521656     
 total        electrons   282.12772706521656     
 total        electrons   282.12772706521656     
 total        electrons   282.12772706521656     
 total        electrons   282.12772706521656     
 total        electrons   282.12772706521656     
 total        electrons   282.12772706521656     
 total        electrons   282.12772706521656     
 total        electrons   282.12772706521656     
 total        electrons   282.12772706521656     
 total        electrons   282.12772706521656     
 total        electrons   282.12772706521656     
 total        electrons   282.12772706521656     
 total        electrons   282.12772706521656     
 total        electrons   282.12772706521656     
 total        electrons   282.12772706521656     
 total        electrons   282.12772706521656     
 total        electrons   282.12772706521656     
 total        electrons   282.12772706521656     
 total        electrons   282.12772706521656     
 total        electrons   282.12772706521656     
 total        electrons   282.12772706521656     
 total        electrons   282.12772706521656     
 total        electrons   282.12772706521656     
 total        electrons   282.12772706521656     
 total        electrons   282.12772706521656     
 total        electrons   282.12772706521656     
 total        electrons   282.12772706521656     
 total        electrons   282.12772706521656     
 total        electrons   282.12772706521656     
 total        electrons   282.12772706521656     
 total        electrons   282.12772706521656     
 total        electrons   282.12772706521656     
 total        electrons   282.12772706521656     
 total        electrons   282.12772706521656     
 total        electrons   282.12772706521656     
 total        electrons   282.12772706521656     
 total        electrons   282.12772706521656     
 total        electrons   282.12772706521656     
 total        electrons   282.12772706521656     
 total        electrons   282.12772706521656     
 total        electrons   282.12772706521656     
 total        electrons   282.12772706521656     
 total        electrons   282.12772706521656     
 total        electrons   282.12772706521656     
 total        electrons   282.12772706521656     
 total        electrons   282.12772706521656     
 total        electrons   282.12772706521656     
 total        electrons   282.12772706521656     
 total        electrons   282.12772706521656     
 total        electrons   282.12772706521656     
Note: The following floating-point exceptions are signalling: IEEE_OVERFLOW_FLAG
Note: The following floating-point exceptions are signalling: IEEE_OVERFLOW_FLAG
Note: The following floating-point exceptions are signalling: IEEE_OVERFLOW_FLAG
Note: The following floating-point exceptions are signalling: IEEE_OVERFLOW_FLAG
Note: The following floating-point exceptions are signalling: IEEE_OVERFLOW_FLAG
Note: The following floating-point exceptions are signalling: IEEE_OVERFLOW_FLAG
Note: The following floating-point exceptions are signalling: IEEE_OVERFLOW_FLAG
Note: The following floating-point exceptions are signalling: IEEE_OVERFLOW_FLAG
Note: The following floating-point exceptions are signalling: IEEE_OVERFLOW_FLAG
Note: The following floating-point exceptions are signalling: IEEE_OVERFLOW_FLAG
Note: The following floating-point exceptions are signalling: IEEE_OVERFLOW_FLAG
Note: The following floating-point exceptions are signalling: IEEE_OVERFLOW_FLAG
Note: The following floating-point exceptions are signalling: IEEE_OVERFLOW_FLAG
Note: The following floating-point exceptions are signalling: IEEE_OVERFLOW_FLAG
Note: The following floating-point exceptions are signalling: IEEE_OVERFLOW_FLAG
Note: The following floating-point exceptions are signalling: IEEE_OVERFLOW_FLAG
Note: The following floating-point exceptions are signalling: IEEE_OVERFLOW_FLAG
Note: The following floating-point exceptions are signalling: IEEE_OVERFLOW_FLAG
Note: The following floating-point exceptions are signalling: IEEE_OVERFLOW_FLAG
Note: The following floating-point exceptions are signalling: IEEE_OVERFLOW_FLAG
Note: The following floating-point exceptions are signalling: IEEE_OVERFLOW_FLAG
Note: The following floating-point exceptions are signalling: IEEE_OVERFLOW_FLAG
Note: The following floating-point exceptions are signalling: IEEE_OVERFLOW_FLAG
Note: The following floating-point exceptions are signalling: IEEE_OVERFLOW_FLAG
Note: The following floating-point exceptions are signalling: IEEE_OVERFLOW_FLAG
Note: The following floating-point exceptions are signalling: IEEE_OVERFLOW_FLAG
Note: The following floating-point exceptions are signalling: IEEE_OVERFLOW_FLAG
Note: The following floating-point exceptions are signalling: IEEE_OVERFLOW_FLAG
Note: The following floating-point exceptions are signalling: IEEE_OVERFLOW_FLAG
Note: The following floating-point exceptions are signalling: IEEE_OVERFLOW_FLAG
Note: The following floating-point exceptions are signalling: IEEE_OVERFLOW_FLAG
Note: The following floating-point exceptions are signalling: IEEE_OVERFLOW_FLAG
Note: The following floating-point exceptions are signalling: IEEE_OVERFLOW_FLAG
Note: The following floating-point exceptions are signalling: IEEE_OVERFLOW_FLAG
Note: The following floating-point exceptions are signalling: IEEE_OVERFLOW_FLAG
Note: The following floating-point exceptions are signalling: IEEE_OVERFLOW_FLAG
Note: The following floating-point exceptions are signalling: IEEE_OVERFLOW_FLAG
Note: The following floating-point exceptions are signalling: IEEE_OVERFLOW_FLAG
Note: The following floating-point exceptions are signalling: IEEE_OVERFLOW_FLAG
Note: The following floating-point exceptions are signalling: IEEE_OVERFLOW_FLAG
Note: The following floating-point exceptions are signalling: IEEE_OVERFLOW_FLAG
Note: The following floating-point exceptions are signalling: IEEE_OVERFLOW_FLAG
Note: The following floating-point exceptions are signalling: IEEE_OVERFLOW_FLAG
Note: The following floating-point exceptions are signalling: IEEE_OVERFLOW_FLAG
Note: The following floating-point exceptions are signalling: IEEE_OVERFLOW_FLAG
Note: The following floating-point exceptions are signalling: IEEE_OVERFLOW_FLAG
Note: The following floating-point exceptions are signalling: IEEE_OVERFLOW_FLAG
Note: The following floating-point exceptions are signalling: IEEE_OVERFLOW_FLAG
Note: The following floating-point exceptions are signalling: IEEE_OVERFLOW_FLAG
Note: The following floating-point exceptions are signalling: IEEE_OVERFLOW_FLAG
Note: The following floating-point exceptions are signalling: IEEE_OVERFLOW_FLAG
Note: The following floating-point exceptions are signalling: IEEE_OVERFLOW_FLAG
Note: The following floating-point exceptions are signalling: IEEE_OVERFLOW_FLAG
Note: The following floating-point exceptions are signalling: IEEE_OVERFLOW_FLAG
Note: The following floating-point exceptions are signalling: IEEE_OVERFLOW_FLAG
Note: The following floating-point exceptions are signalling: IEEE_OVERFLOW_FLAG
Note: The following floating-point exceptions are signalling: IEEE_OVERFLOW_FLAG
Note: The following floating-point exceptions are signalling: IEEE_OVERFLOW_FLAG
Note: The following floating-point exceptions are signalling: IEEE_OVERFLOW_FLAG
Note: The following floating-point exceptions are signalling: IEEE_OVERFLOW_FLAG
Note: The following floating-point exceptions are signalling: IEEE_OVERFLOW_FLAG
Note: The following floating-point exceptions are signalling: IEEE_OVERFLOW_FLAG
Note: The following floating-point exceptions are signalling: IEEE_OVERFLOW_FLAG
Note: The following floating-point exceptions are signalling: IEEE_OVERFLOW_FLAG
Note: The following floating-point exceptions are signalling: IEEE_OVERFLOW_FLAG
Note: The following floating-point exceptions are signalling: IEEE_OVERFLOW_FLAG
Note: The following floating-point exceptions are signalling: IEEE_OVERFLOW_FLAG
Note: The following floating-point exceptions are signalling: IEEE_OVERFLOW_FLAG
Note: The following floating-point exceptions are signalling: IEEE_OVERFLOW_FLAG
Note: The following floating-point exceptions are signalling: IEEE_INVALID_FLAG IEEE_OVERFLOW_FLAG
Note: The following floating-point exceptions are signalling: IEEE_OVERFLOW_FLAG
Note: The following floating-point exceptions are signalling: IEEE_OVERFLOW_FLAG
