   49   49   40    1
  0.2411350E+02  0.8645320E-09  0.6085000E-09  0.2593596E-08  0.5000000E-15
   1.0000000000000000E-004
  CAR 
 Name                                    
    179    149    114

  0.3742002E-15  0.3742002E-15  0.3742002E-15  0.3367003E-02
    1      -14.021661   1.000000
    2      -12.816602   1.000000
    3      -12.473126   1.000000
    4      -12.013769   1.000000
    5      -11.653168   1.000000
    6      -11.274087   1.000000
    7      -11.238483   1.000000
    8      -10.935093   1.000000
    9      -10.799996   1.000000
   10      -10.774729   1.000000
   11      -10.654875   1.000000
   12      -10.537273   1.000000
   13      -10.400704   1.000000
   14      -10.257531   1.000000
   15       -9.850446   1.000000
   16       -9.347516   1.000000
   17       -9.216279   1.000000
   18       -9.149661   1.000000
   19       -8.996402   1.000000
   20       -8.642180   1.000000
   21       -8.458903   1.000000
   22       -8.306263   1.000000
   23       -8.119921   1.000000
   24       -8.052271   1.000000
   25       -7.650494   1.000000
   26       -7.567961   1.000000
   27       -7.547710   1.000000
   28       -7.292987   1.000000
   29       -7.213938   1.000000
   30       -6.635372   1.000000
   31       -6.388641   1.000000
   32       -6.309903   1.000000
   33       -6.266745   1.000000
   34       -6.120408   1.000000
   35       -6.006138   1.000000
   36       -5.932329   1.000000
   37       -5.629819   1.000000
   38       -5.494058   1.000000
   39       -5.472275   1.000000
   40       -5.394364   1.000000
   41       -5.339626   1.000000
   42       -5.086931   1.000000
   43       -5.053003   1.000000
   44       -4.991345   1.000000
   45       -4.867484   1.000000
   46       -4.849707   1.000000
   47       -4.816344   1.000000
   48       -4.654409   1.000000
   49       -4.628147   1.000000
   50       -4.480345   1.000000
   51       -4.370102   1.000000
   52       -4.298871   1.000000
   53       -4.211399   1.000000
   54       -4.081724   1.000000
   55       -4.038490   1.000000
   56       -4.023406   1.000000
   57       -4.005952   1.000000
   58       -3.872517   1.000000
   59       -3.837060   1.000000
   60       -3.769245   1.000000
   61       -3.728532   1.000000
   62       -3.550651   1.000000
   63       -3.525824   1.000000
   64       -3.390151   1.000000
   65       -3.375220   1.000000
   66       -3.228893   1.000000
   67       -3.081658   1.000000
   68       -3.032750   1.000000
   69       -2.867133   1.000000
   70       -2.807647   1.000000
   71       -2.618841   1.000000
   72       -2.468222   1.000000
   73       -2.427650   1.000000
   74       -2.276925   1.000000
   75       -2.161532   1.000000
   76       -1.870732   1.000000
   77       -1.761827   1.000000
   78       -1.709158   1.000000
   79       -1.538113   1.000000
   80       -1.499976   1.000000
   81       -1.463550   1.000000
   82       -1.211302   1.000000
   83       -1.163694   1.000000
   84       -0.898894   1.000048
   85       -0.677785   1.007699
   86       -0.532082   1.034974
   87       -0.406356   0.942961
   88       -0.322409   0.692711
   89       -0.122521   0.019541
   90       -0.091450  -0.014720
   91       -0.016290  -0.034752
   92       -0.000773  -0.032698
   93        0.100739  -0.011518
   94        0.144410  -0.005724
   95        0.362392  -0.000031
   96        0.377658  -0.000020
   97        0.402530  -0.000009
   98        0.440365  -0.000003
   99        0.565262  -0.000000
  100        0.607354  -0.000000
  101        0.680309  -0.000000
  102        0.709715  -0.000000
  103        0.848555  -0.000000
  104        0.987705  -0.000000
  105        1.072516  -0.000000
  106        1.098585  -0.000000
  107        1.148349  -0.000000
  108        1.170833  -0.000000
  109        1.273269  -0.000000
  110        1.352304  -0.000000
  111        1.408888  -0.000000
  112        1.478515  -0.000000
  113        1.634224  -0.000000
  114        1.753840  -0.000000

  0.1111111E+00  0.3729374E-15  0.3860503E-15  0.6734007E-02
    1      -13.997911   1.000000
    2      -12.808376   1.000000
    3      -12.576928   1.000000
    4      -11.949933   1.000000
    5      -11.635745   1.000000
    6      -11.308247   1.000000
    7      -11.247339   1.000000
    8      -10.941095   1.000000
    9      -10.798682   1.000000
   10      -10.772484   1.000000
   11      -10.647103   1.000000
   12      -10.527130   1.000000
   13      -10.366082   1.000000
   14      -10.226193   1.000000
   15       -9.854051   1.000000
   16       -9.379695   1.000000
   17       -9.215108   1.000000
   18       -9.152009   1.000000
   19       -8.986987   1.000000
   20       -8.688294   1.000000
   21       -8.490162   1.000000
   22       -8.294239   1.000000
   23       -8.097743   1.000000
   24       -8.035386   1.000000
   25       -7.662872   1.000000
   26       -7.645013   1.000000
   27       -7.569589   1.000000
   28       -7.349882   1.000000
   29       -7.120600   1.000000
   30       -6.624168   1.000000
   31       -6.346016   1.000000
   32       -6.294997   1.000000
   33       -6.223833   1.000000
   34       -6.105689   1.000000
   35       -6.017897   1.000000
   36       -5.909111   1.000000
   37       -5.657643   1.000000
   38       -5.533288   1.000000
   39       -5.433230   1.000000
   40       -5.353426   1.000000
   41       -5.288199   1.000000
   42       -5.194377   1.000000
   43       -5.068123   1.000000
   44       -4.993469   1.000000
   45       -4.910400   1.000000
   46       -4.850537   1.000000
   47       -4.723745   1.000000
   48       -4.654426   1.000000
   49       -4.592947   1.000000
   50       -4.477528   1.000000
   51       -4.373387   1.000000
   52       -4.296674   1.000000
   53       -4.197920   1.000000
   54       -4.108745   1.000000
   55       -4.045478   1.000000
   56       -4.021763   1.000000
   57       -3.997829   1.000000
   58       -3.893166   1.000000
   59       -3.828055   1.000000
   60       -3.782538   1.000000
   61       -3.712087   1.000000
   62       -3.606429   1.000000
   63       -3.493368   1.000000
   64       -3.442404   1.000000
   65       -3.374132   1.000000
   66       -3.245155   1.000000
   67       -3.048443   1.000000
   68       -3.014137   1.000000
   69       -2.866856   1.000000
   70       -2.796539   1.000000
   71       -2.632071   1.000000
   72       -2.449086   1.000000
   73       -2.417689   1.000000
   74       -2.278552   1.000000
   75       -2.171326   1.000000
   76       -1.892629   1.000000
   77       -1.772895   1.000000
   78       -1.683105   1.000000
   79       -1.538011   1.000000
   80       -1.474897   1.000000
   81       -1.403105   1.000000
   82       -1.232932   1.000000
   83       -1.161314   1.000000
   84       -0.938350   1.000014
   85       -0.660777   1.010061
   86       -0.519348   1.035454
   87       -0.435091   0.989572
   88       -0.308286   0.636835
   89       -0.143148   0.054265
   90       -0.121252   0.017734
   91       -0.004763  -0.033327
   92        0.020075  -0.028634
   93        0.132782  -0.006982
   94        0.156702  -0.004596
   95        0.293614  -0.000216
   96        0.370206  -0.000025
   97        0.409991  -0.000007
   98        0.440098  -0.000003
   99        0.539270  -0.000000
  100        0.613447  -0.000000
  101        0.691920  -0.000000
  102        0.759241  -0.000000
  103        0.866845  -0.000000
  104        1.029020  -0.000000
  105        1.093742  -0.000000
  106        1.115996  -0.000000
  107        1.140386  -0.000000
  108        1.181965  -0.000000
  109        1.279198  -0.000000
  110        1.347439  -0.000000
  111        1.395576  -0.000000
  112        1.464477  -0.000000
  113        1.617824  -0.000000
  114        1.714496  -0.000000

  0.2222222E+00  0.3922785E-15  0.3630220E-15  0.6734007E-02
    1      -13.928760   1.000000
    2      -12.878321   1.000000
    3      -12.674491   1.000000
    4      -11.889153   1.000000
    5      -11.609065   1.000000
    6      -11.372011   1.000000
    7      -11.238950   1.000000
    8      -10.957110   1.000000
    9      -10.799007   1.000000
   10      -10.762361   1.000000
   11      -10.628769   1.000000
   12      -10.500707   1.000000
   13      -10.293098   1.000000
   14      -10.143722   1.000000
   15       -9.866959   1.000000
   16       -9.463051   1.000000
   17       -9.203981   1.000000
   18       -9.147304   1.000000
   19       -8.949003   1.000000
   20       -8.803037   1.000000
   21       -8.591844   1.000000
   22       -8.279204   1.000000
   23       -8.113745   1.000000
   24       -7.972958   1.000000
   25       -7.774094   1.000000
   26       -7.631936   1.000000
   27       -7.596381   1.000000
   28       -7.400992   1.000000
   29       -7.050412   1.000000
   30       -6.603517   1.000000
   31       -6.298149   1.000000
   32       -6.251812   1.000000
   33       -6.156372   1.000000
   34       -6.057681   1.000000
   35       -5.985066   1.000000
   36       -5.892744   1.000000
   37       -5.672013   1.000000
   38       -5.573506   1.000000
   39       -5.431860   1.000000
   40       -5.309984   1.000000
   41       -5.237768   1.000000
   42       -5.178561   1.000000
   43       -5.059809   1.000000
   44       -5.015553   1.000000
   45       -4.969843   1.000000
   46       -4.869906   1.000000
   47       -4.688542   1.000000
   48       -4.610602   1.000000
   49       -4.549072   1.000000
   50       -4.468853   1.000000
   51       -4.370428   1.000000
   52       -4.276876   1.000000
   53       -4.196887   1.000000
   54       -4.158121   1.000000
   55       -4.070406   1.000000
   56       -4.022835   1.000000
   57       -3.996303   1.000000
   58       -3.888469   1.000000
   59       -3.813314   1.000000
   60       -3.791286   1.000000
   61       -3.686948   1.000000
   62       -3.656370   1.000000
   63       -3.585209   1.000000
   64       -3.469971   1.000000
   65       -3.371538   1.000000
   66       -3.265661   1.000000
   67       -3.017035   1.000000
   68       -2.975646   1.000000
   69       -2.873106   1.000000
   70       -2.766595   1.000000
   71       -2.661758   1.000000
   72       -2.441071   1.000000
   73       -2.372050   1.000000
   74       -2.300093   1.000000
   75       -2.151361   1.000000
   76       -1.948712   1.000000
   77       -1.763326   1.000000
   78       -1.637139   1.000000
   79       -1.546513   1.000000
   80       -1.461411   1.000000
   81       -1.267554   1.000000
   82       -1.217908   1.000000
   83       -1.115366   1.000000
   84       -1.040760   1.000000
   85       -0.669748   1.008758
   86       -0.500462   1.033709
   87       -0.479229   1.026973
   88       -0.281028   0.523543
   89       -0.187724   0.165409
   90       -0.126770   0.025864
   91       -0.038387  -0.035206
   92        0.065291  -0.018384
   93        0.095531  -0.012410
   94        0.185919  -0.002626
   95        0.253072  -0.000598
   96        0.342238  -0.000056
   97        0.386081  -0.000015
   98        0.491404  -0.000000
   99        0.576969  -0.000000
  100        0.604340  -0.000000
  101        0.690936  -0.000000
  102        0.848276  -0.000000
  103        0.941564  -0.000000
  104        1.049268  -0.000000
  105        1.102382  -0.000000
  106        1.139875  -0.000000
  107        1.185063  -0.000000
  108        1.210070  -0.000000
  109        1.317696  -0.000000
  110        1.345738  -0.000000
  111        1.376352  -0.000000
  112        1.455060  -0.000000
  113        1.604181  -0.000000
  114        1.778383  -0.000000

  0.3333333E+00  0.3713828E-15  0.3468587E-15  0.6734007E-02
    1      -13.823192   1.000000
    2      -13.085434   1.000000
    3      -12.615518   1.000000
    4      -11.932178   1.000000
    5      -11.596415   1.000000
    6      -11.369796   1.000000
    7      -11.225831   1.000000
    8      -10.975146   1.000000
    9      -10.801567   1.000000
   10      -10.744922   1.000000
   11      -10.610337   1.000000
   12      -10.475006   1.000000
   13      -10.224122   1.000000
   14      -10.018274   1.000000
   15       -9.893329   1.000000
   16       -9.575677   1.000000
   17       -9.168563   1.000000
   18       -9.123871   1.000000
   19       -8.953848   1.000000
   20       -8.855051   1.000000
   21       -8.741847   1.000000
   22       -8.294975   1.000000
   23       -8.183566   1.000000
   24       -8.044135   1.000000
   25       -7.682144   1.000000
   26       -7.644582   1.000000
   27       -7.522609   1.000000
   28       -7.409412   1.000000
   29       -7.064032   1.000000
   30       -6.586491   1.000000
   31       -6.421818   1.000000
   32       -6.254845   1.000000
   33       -6.056826   1.000000
   34       -5.972367   1.000000
   35       -5.925636   1.000000
   36       -5.837858   1.000000
   37       -5.677376   1.000000
   38       -5.517490   1.000000
   39       -5.429071   1.000000
   40       -5.299847   1.000000
   41       -5.219097   1.000000
   42       -5.171495   1.000000
   43       -5.069694   1.000000
   44       -5.027195   1.000000
   45       -4.927387   1.000000
   46       -4.836399   1.000000
   47       -4.665151   1.000000
   48       -4.597552   1.000000
   49       -4.530816   1.000000
   50       -4.490727   1.000000
   51       -4.352519   1.000000
   52       -4.292016   1.000000
   53       -4.248533   1.000000
   54       -4.181967   1.000000
   55       -4.083934   1.000000
   56       -4.073367   1.000000
   57       -3.958744   1.000000
   58       -3.871839   1.000000
   59       -3.816536   1.000000
   60       -3.753439   1.000000
   61       -3.678867   1.000000
   62       -3.667027   1.000000
   63       -3.647255   1.000000
   64       -3.493954   1.000000
   65       -3.363331   1.000000
   66       -3.271771   1.000000
   67       -3.052953   1.000000
   68       -2.945022   1.000000
   69       -2.915677   1.000000
   70       -2.771459   1.000000
   71       -2.658410   1.000000
   72       -2.488730   1.000000
   73       -2.335285   1.000000
   74       -2.253193   1.000000
   75       -2.111082   1.000000
   76       -1.959525   1.000000
   77       -1.763139   1.000000
   78       -1.612235   1.000000
   79       -1.546484   1.000000
   80       -1.450424   1.000000
   81       -1.268048   1.000000
   82       -1.157677   1.000000
   83       -1.109962   1.000000
   84       -0.911553   1.000033
   85       -0.674459   1.008125
   86       -0.538293   1.034370
   87       -0.512601   1.035210
   88       -0.301595   0.609539
   89       -0.245454   0.374597
   90       -0.201598   0.209831
   91       -0.106922  -0.000180
   92        0.037509  -0.024693
   93        0.152852  -0.004928
   94        0.249974  -0.000644
   95        0.281943  -0.000292
   96        0.309119  -0.000143
   97        0.375112  -0.000021
   98        0.546313  -0.000000
   99        0.611400  -0.000000
  100        0.664329  -0.000000
  101        0.709684  -0.000000
  102        0.923161  -0.000000
  103        0.998495  -0.000000
  104        1.034186  -0.000000
  105        1.102758  -0.000000
  106        1.141612  -0.000000
  107        1.217717  -0.000000
  108        1.263970  -0.000000
  109        1.353111  -0.000000
  110        1.377306  -0.000000
  111        1.454743  -0.000000
  112        1.497115  -0.000000
  113        1.545322  -0.000000
  114        1.576385  -0.000000

  0.4444444E+00  0.3870091E-15  0.3932070E-15  0.6734007E-02
    1      -13.715652   1.000000
    2      -13.256680   1.000000
    3      -12.544745   1.000000
    4      -12.017063   1.000000
    5      -11.576187   1.000000
    6      -11.353418   1.000000
    7      -11.217079   1.000000
    8      -10.986320   1.000000
    9      -10.803286   1.000000
   10      -10.731531   1.000000
   11      -10.599713   1.000000
   12      -10.462138   1.000000
   13      -10.175342   1.000000
   14       -9.923660   1.000000
   15       -9.870791   1.000000
   16       -9.703612   1.000000
   17       -9.116633   1.000000
   18       -9.086899   1.000000
   19       -9.044121   1.000000
   20       -8.892384   1.000000
   21       -8.752024   1.000000
   22       -8.391038   1.000000
   23       -8.249775   1.000000
   24       -8.044277   1.000000
   25       -7.670024   1.000000
   26       -7.602768   1.000000
   27       -7.507942   1.000000
   28       -7.248239   1.000000
   29       -7.110849   1.000000
   30       -6.670497   1.000000
   31       -6.553481   1.000000
   32       -6.262399   1.000000
   33       -6.015642   1.000000
   34       -5.878293   1.000000
   35       -5.824832   1.000000
   36       -5.790752   1.000000
   37       -5.658642   1.000000
   38       -5.518486   1.000000
   39       -5.411971   1.000000
   40       -5.326412   1.000000
   41       -5.235435   1.000000
   42       -5.182528   1.000000
   43       -5.063304   1.000000
   44       -5.002378   1.000000
   45       -4.879423   1.000000
   46       -4.754632   1.000000
   47       -4.658820   1.000000
   48       -4.600620   1.000000
   49       -4.543449   1.000000
   50       -4.448322   1.000000
   51       -4.379077   1.000000
   52       -4.367269   1.000000
   53       -4.313402   1.000000
   54       -4.166304   1.000000
   55       -4.117080   1.000000
   56       -4.092264   1.000000
   57       -3.929352   1.000000
   58       -3.890097   1.000000
   59       -3.809823   1.000000
   60       -3.717530   1.000000
   61       -3.669596   1.000000
   62       -3.645732   1.000000
   63       -3.621497   1.000000
   64       -3.506942   1.000000
   65       -3.377318   1.000000
   66       -3.255050   1.000000
   67       -3.092937   1.000000
   68       -3.006750   1.000000
   69       -2.944604   1.000000
   70       -2.771653   1.000000
   71       -2.643246   1.000000
   72       -2.534623   1.000000
   73       -2.312616   1.000000
   74       -2.211419   1.000000
   75       -2.083455   1.000000
   76       -1.898483   1.000000
   77       -1.794279   1.000000
   78       -1.608595   1.000000
   79       -1.551939   1.000000
   80       -1.429843   1.000000
   81       -1.339574   1.000000
   82       -1.125082   1.000000
   83       -0.999781   1.000002
   84       -0.796336   1.000717
   85       -0.697582   1.005503
   86       -0.618320   1.017929
   87       -0.474607   1.024678
   88       -0.394726   0.918356
   89       -0.294341   0.579491
   90       -0.208762   0.234416
   91       -0.106830  -0.000281
   92        0.029715  -0.026484
   93        0.095996  -0.012328
   94        0.210643  -0.001571
   95        0.237447  -0.000864
   96        0.372832  -0.000023
   97        0.441240  -0.000002
   98        0.562197  -0.000000
   99        0.660858  -0.000000
  100        0.761606  -0.000000
  101        0.829702  -0.000000
  102        0.908433  -0.000000
  103        0.977195  -0.000000
  104        1.049112  -0.000000
  105        1.123107  -0.000000
  106        1.166321  -0.000000
  107        1.218656  -0.000000
  108        1.261146  -0.000000
  109        1.327769  -0.000000
  110        1.374253  -0.000000
  111        1.431767  -0.000000
  112        1.452347  -0.000000
  113        1.495372  -0.000000
  114        1.613791  -0.000000

  0.3742002E-15  0.9090909E-01  0.3596334E-15  0.6734007E-02
    1      -13.989072   1.000000
    2      -12.790491   1.000000
    3      -12.477062   1.000000
    4      -11.982296   1.000000
    5      -11.630985   1.000000
    6      -11.422550   1.000000
    7      -11.257989   1.000000
    8      -11.158086   1.000000
    9      -10.919038   1.000000
   10      -10.654677   1.000000
   11      -10.593749   1.000000
   12      -10.416137   1.000000
   13      -10.351400   1.000000
   14      -10.300032   1.000000
   15       -9.753483   1.000000
   16       -9.525377   1.000000
   17       -9.190647   1.000000
   18       -9.082521   1.000000
   19       -8.893361   1.000000
   20       -8.628679   1.000000
   21       -8.501833   1.000000
   22       -8.236603   1.000000
   23       -8.113535   1.000000
   24       -8.002038   1.000000
   25       -7.676871   1.000000
   26       -7.585940   1.000000
   27       -7.368537   1.000000
   28       -7.229680   1.000000
   29       -7.184730   1.000000
   30       -6.641853   1.000000
   31       -6.403478   1.000000
   32       -6.327985   1.000000
   33       -6.226538   1.000000
   34       -6.123305   1.000000
   35       -6.032976   1.000000
   36       -5.892509   1.000000
   37       -5.678250   1.000000
   38       -5.520296   1.000000
   39       -5.451916   1.000000
   40       -5.368122   1.000000
   41       -5.343283   1.000000
   42       -5.145643   1.000000
   43       -5.099069   1.000000
   44       -4.996186   1.000000
   45       -4.949156   1.000000
   46       -4.865599   1.000000
   47       -4.797746   1.000000
   48       -4.734205   1.000000
   49       -4.610108   1.000000
   50       -4.480484   1.000000
   51       -4.435432   1.000000
   52       -4.332876   1.000000
   53       -4.272706   1.000000
   54       -4.179938   1.000000
   55       -4.066988   1.000000
   56       -4.052257   1.000000
   57       -3.968515   1.000000
   58       -3.894563   1.000000
   59       -3.786898   1.000000
   60       -3.741777   1.000000
   61       -3.641728   1.000000
   62       -3.590114   1.000000
   63       -3.527470   1.000000
   64       -3.410827   1.000000
   65       -3.327853   1.000000
   66       -3.244370   1.000000
   67       -3.075808   1.000000
   68       -3.042719   1.000000
   69       -2.885372   1.000000
   70       -2.818505   1.000000
   71       -2.590636   1.000000
   72       -2.501599   1.000000
   73       -2.426317   1.000000
   74       -2.254906   1.000000
   75       -2.073894   1.000000
   76       -1.888722   1.000000
   77       -1.771752   1.000000
   78       -1.732753   1.000000
   79       -1.603727   1.000000
   80       -1.518032   1.000000
   81       -1.423179   1.000000
   82       -1.220827   1.000000
   83       -1.143172   1.000000
   84       -0.902391   1.000043
   85       -0.786055   1.000911
   86       -0.562796   1.030358
   87       -0.483819   1.028938
   88       -0.366458   0.844379
   89       -0.235814   0.335835
   90       -0.114705   0.008990
   91       -0.051463  -0.033516
   92       -0.019537  -0.035027
   93        0.087916  -0.013791
   94        0.195430  -0.002164
   95        0.298321  -0.000191
   96        0.370529  -0.000024
   97        0.481156  -0.000001
   98        0.504854  -0.000000
   99        0.609135  -0.000000
  100        0.642377  -0.000000
  101        0.715433  -0.000000
  102        0.755717  -0.000000
  103        0.870555  -0.000000
  104        1.021887  -0.000000
  105        1.056470  -0.000000
  106        1.102285  -0.000000
  107        1.161192  -0.000000
  108        1.196566  -0.000000
  109        1.280771  -0.000000
  110        1.334377  -0.000000
  111        1.395983  -0.000000
  112        1.503654  -0.000000
  113        1.557209  -0.000000
  114        1.638266  -0.000000

  0.1111111E+00  0.9090909E-01  0.4822234E-15  0.6734007E-02
    1      -13.946432   1.000000
    2      -12.789443   1.000000
    3      -12.619542   1.000000
    4      -11.899533   1.000000
    5      -11.604506   1.000000
    6      -11.433619   1.000000
    7      -11.326028   1.000000
    8      -11.160415   1.000000
    9      -10.885221   1.000000
   10      -10.634976   1.000000
   11      -10.596558   1.000000
   12      -10.408684   1.000000
   13      -10.310450   1.000000
   14      -10.256708   1.000000
   15       -9.766660   1.000000
   16       -9.545924   1.000000
   17       -9.210425   1.000000
   18       -9.062560   1.000000
   19       -8.892135   1.000000
   20       -8.694503   1.000000
   21       -8.514988   1.000000
   22       -8.286199   1.000000
   23       -8.095788   1.000000
   24       -7.966978   1.000000
   25       -7.734261   1.000000
   26       -7.636777   1.000000
   27       -7.429983   1.000000
   28       -7.231630   1.000000
   29       -7.093233   1.000000
   30       -6.659121   1.000000
   31       -6.355652   1.000000
   32       -6.286493   1.000000
   33       -6.166004   1.000000
   34       -6.097737   1.000000
   35       -6.001460   1.000000
   36       -5.879421   1.000000
   37       -5.730609   1.000000
   38       -5.512310   1.000000
   39       -5.414598   1.000000
   40       -5.362303   1.000000
   41       -5.286411   1.000000
   42       -5.213877   1.000000
   43       -5.092446   1.000000
   44       -5.024922   1.000000
   45       -4.985988   1.000000
   46       -4.868134   1.000000
   47       -4.778324   1.000000
   48       -4.679121   1.000000
   49       -4.569930   1.000000
   50       -4.483787   1.000000
   51       -4.390675   1.000000
   52       -4.355952   1.000000
   53       -4.257299   1.000000
   54       -4.190504   1.000000
   55       -4.102618   1.000000
   56       -4.026184   1.000000
   57       -3.977551   1.000000
   58       -3.896945   1.000000
   59       -3.800560   1.000000
   60       -3.745031   1.000000
   61       -3.654299   1.000000
   62       -3.634811   1.000000
   63       -3.535720   1.000000
   64       -3.477737   1.000000
   65       -3.338924   1.000000
   66       -3.229705   1.000000
   67       -3.061055   1.000000
   68       -2.975990   1.000000
   69       -2.870126   1.000000
   70       -2.820367   1.000000
   71       -2.642445   1.000000
   72       -2.488732   1.000000
   73       -2.400611   1.000000
   74       -2.252635   1.000000
   75       -2.152697   1.000000
   76       -1.898772   1.000000
   77       -1.762520   1.000000
   78       -1.681671   1.000000
   79       -1.572833   1.000000
   80       -1.481324   1.000000
   81       -1.358093   1.000000
   82       -1.245533   1.000000
   83       -1.126725   1.000000
   84       -0.968039   1.000006
   85       -0.755690   1.001781
   86       -0.528317   1.035230
   87       -0.502414   1.034052
   88       -0.364028   0.837101
   89       -0.227527   0.303485
   90       -0.139373   0.047140
   91       -0.059827  -0.031453
   92       -0.024951  -0.035343
   93        0.105838  -0.010687
   94        0.195235  -0.002173
   95        0.269426  -0.000401
   96        0.351117  -0.000044
   97        0.464957  -0.000001
   98        0.531572  -0.000000
   99        0.596937  -0.000000
  100        0.655651  -0.000000
  101        0.724618  -0.000000
  102        0.782278  -0.000000
  103        0.914185  -0.000000
  104        1.045319  -0.000000
  105        1.098559  -0.000000
  106        1.120410  -0.000000
  107        1.179557  -0.000000
  108        1.207900  -0.000000
  109        1.284599  -0.000000
  110        1.334829  -0.000000
  111        1.397345  -0.000000
  112        1.458157  -0.000000
  113        1.587809  -0.000000
  114        1.777166  -0.000000

  0.2222222E+00  0.9090909E-01  0.3065600E-15  0.6734007E-02
    1      -13.861019   1.000000
    2      -12.936811   1.000000
    3      -12.635276   1.000000
    4      -11.877697   1.000000
    5      -11.589059   1.000000
    6      -11.450346   1.000000
    7      -11.359333   1.000000
    8      -11.166028   1.000000
    9      -10.825657   1.000000
   10      -10.617100   1.000000
   11      -10.582957   1.000000
   12      -10.407139   1.000000
   13      -10.243241   1.000000
   14      -10.205613   1.000000
   15       -9.789930   1.000000
   16       -9.560186   1.000000
   17       -9.253367   1.000000
   18       -9.038815   1.000000
   19       -8.867618   1.000000
   20       -8.775386   1.000000
   21       -8.570209   1.000000
   22       -8.356069   1.000000
   23       -8.132985   1.000000
   24       -8.003963   1.000000
   25       -7.729674   1.000000
   26       -7.598564   1.000000
   27       -7.452254   1.000000
   28       -7.247902   1.000000
   29       -7.056588   1.000000
   30       -6.672674   1.000000
   31       -6.354129   1.000000
   32       -6.243169   1.000000
   33       -6.124898   1.000000
   34       -6.027977   1.000000
   35       -5.968670   1.000000
   36       -5.839409   1.000000
   37       -5.700628   1.000000
   38       -5.538722   1.000000
   39       -5.418935   1.000000
   40       -5.343446   1.000000
   41       -5.264394   1.000000
   42       -5.178798   1.000000
   43       -5.077298   1.000000
   44       -5.066728   1.000000
   45       -4.970221   1.000000
   46       -4.865571   1.000000
   47       -4.741027   1.000000
   48       -4.653234   1.000000
   49       -4.523575   1.000000
   50       -4.476455   1.000000
   51       -4.421778   1.000000
   52       -4.338592   1.000000
   53       -4.271284   1.000000
   54       -4.211312   1.000000
   55       -4.073685   1.000000
   56       -4.023838   1.000000
   57       -3.986621   1.000000
   58       -3.897370   1.000000
   59       -3.812611   1.000000
   60       -3.743154   1.000000
   61       -3.694675   1.000000
   62       -3.650682   1.000000
   63       -3.585593   1.000000
   64       -3.517879   1.000000
   65       -3.354401   1.000000
   66       -3.223752   1.000000
   67       -3.079908   1.000000
   68       -2.932273   1.000000
   69       -2.875527   1.000000
   70       -2.782829   1.000000
   71       -2.708110   1.000000
   72       -2.445667   1.000000
   73       -2.414980   1.000000
   74       -2.261994   1.000000
   75       -2.154148   1.000000
   76       -1.925174   1.000000
   77       -1.755119   1.000000
   78       -1.648924   1.000000
   79       -1.606161   1.000000
   80       -1.423349   1.000000
   81       -1.250077   1.000000
   82       -1.188545   1.000000
   83       -1.094477   1.000000
   84       -1.017138   1.000001
   85       -0.748041   1.002090
   86       -0.572082   1.028398
   87       -0.512023   1.035171
   88       -0.362191   0.831509
   89       -0.256482   0.420090
   90       -0.120231   0.016307