   72   72    1    1
  0.2168974E+02  0.1053953E-08  0.6141200E-09  0.2412750E-08  0.5000000E-15
   1.0000000000000000E-004
  CAR 
 Name                                    
    267     23    176

  0.3742002E-15  0.3742002E-15  0.1262379E-14  0.2222222E-01
    1      -13.806992   1.000000
    2      -12.755008   1.000000
    3      -12.536657   1.000000
    4      -12.372181   1.000000
    5      -11.803097   1.000000
    6      -11.604654   1.000000
    7      -11.536392   1.000000
    8      -11.268887   1.000000
    9      -11.237295   1.000000
   10      -11.123336   1.000000
   11      -11.015996   1.000000
   12      -10.845484   1.000000
   13      -10.619828   1.000000
   14      -10.305555   1.000000
   15      -10.185643   1.000000
   16      -10.119079   1.000000
   17       -9.978680   1.000000
   18       -9.957180   1.000000
   19       -9.702927   1.000000
   20       -9.644958   1.000000
   21       -9.394554   1.000000
   22       -9.370358   1.000000
   23       -9.299515   1.000000
   24       -9.132939   1.000000
   25       -8.832745   1.000000
   26       -8.749204   1.000000
   27       -8.528130   1.000000
   28       -8.261663   1.000000
   29       -8.169607   1.000000
   30       -8.050862   1.000000
   31       -7.884482   1.000000
   32       -7.844969   1.000000
   33       -7.509116   1.000000
   34       -7.332010   1.000000
   35       -7.265857   1.000000
   36       -7.105597   1.000000
   37       -7.014267   1.000000
   38       -6.782777   1.000000
   39       -6.738066   1.000000
   40       -6.691748   1.000000
   41       -6.575422   1.000000
   42       -6.537029   1.000000
   43       -6.344700   1.000000
   44       -6.298253   1.000000
   45       -6.115816   1.000000
   46       -6.050965   1.000000
   47       -6.027154   1.000000
   48       -5.972774   1.000000
   49       -5.907684   1.000000
   50       -5.793357   1.000000
   51       -5.689099   1.000000
   52       -5.664904   1.000000
   53       -5.481468   1.000000
   54       -5.443424   1.000000
   55       -5.416030   1.000000
   56       -5.380459   1.000000
   57       -5.199205   1.000000
   58       -5.183847   1.000000
   59       -5.089430   1.000000
   60       -5.047238   1.000000
   61       -4.989392   1.000000
   62       -4.940594   1.000000
   63       -4.727495   1.000000
   64       -4.635018   1.000000
   65       -4.598048   1.000000
   66       -4.565871   1.000000
   67       -4.483473   1.000000
   68       -4.462352   1.000000
   69       -4.333297   1.000000
   70       -4.292938   1.000000
   71       -4.260680   1.000000
   72       -4.154456   1.000000
   73       -4.103915   1.000000
   74       -4.021980   1.000000
   75       -3.994369   1.000000
   76       -3.939476   1.000000
   77       -3.859986   1.000000
   78       -3.839451   1.000000
   79       -3.791399   1.000000
   80       -3.704568   1.000000
   81       -3.659496   1.000000
   82       -3.560207   1.000000
   83       -3.534836   1.000000
   84       -3.500124   1.000000
   85       -3.424241   1.000000
   86       -3.379541   1.000000
   87       -3.268822   1.000000
   88       -3.240548   1.000000
   89       -3.202947   1.000000
   90       -3.099447   1.000000
   91       -3.030204   1.000000
   92       -2.969702   1.000000
   93       -2.911640   1.000000
   94       -2.819224   1.000000
   95       -2.739926   1.000000
   96       -2.689569   1.000000
   97       -2.543431   1.000000
   98       -2.443016   1.000000
   99       -2.438461   1.000000
  100       -2.369088   1.000000
  101       -2.349819   1.000000
  102       -2.243763   1.000000
  103       -2.208483   1.000000
  104       -2.196568   1.000000
  105       -2.161157   1.000000
  106       -2.113088   1.000000
  107       -2.069531   1.000000
  108       -2.015347   1.000000
  109       -1.975919   1.000000
  110       -1.862937   1.000000
  111       -1.789827   1.000000
  112       -1.756562   1.000000
  113       -1.665277   1.000000
  114       -1.617190   1.000000
  115       -1.480715   1.000000
  116       -1.415463   1.000000
  117       -1.382691   1.000000
  118       -1.171055   1.000000
  119       -1.080363   1.000000
  120       -1.036611   1.000000
  121       -0.981817   1.000000
  122       -0.889191   1.000000
  123       -0.666893   1.000000
  124       -0.539165   1.000000
  125       -0.432755   1.000015
  126       -0.396838   1.000044
  127       -0.333766   1.000253
  128       -0.195234   1.005284
  129       -0.066553   1.028592
  130       -0.035896   1.034102
  131        0.060038   1.000832
  132        0.134347   0.855573
  133        0.159722   0.775165
  134        0.210028   0.580618
  135        0.288325   0.261448
  136        0.369917   0.038843
  137        0.388621   0.010668
  138        0.409186  -0.011405
  139        0.498782  -0.033489
  140        0.664337  -0.004350
  141        0.717651  -0.001492
  142        0.732551  -0.001074
  143        0.808250  -0.000166
  144        0.829778  -0.000092
  145        0.932412  -0.000004
  146        1.039335  -0.000000
  147        1.091551  -0.000000
  148        1.131925  -0.000000
  149        1.176647  -0.000000
  150        1.221715  -0.000000
  151        1.249856  -0.000000
  152        1.317109  -0.000000
  153        1.323834  -0.000000
  154        1.359279  -0.000000
  155        1.362230  -0.000000
  156        1.392050  -0.000000
  157        1.487873  -0.000000
  158        1.514513  -0.000000
  159        1.552422  -0.000000
  160        1.595903  -0.000000
  161        1.613162  -0.000000
  162        1.615125  -0.000000
  163        1.633475  -0.000000
  164        1.666906  -0.000000
  165        1.701302  -0.000000
  166        1.755669  -0.000000
  167        1.833311  -0.000000
  168        1.872835  -0.000000
  169        1.976344  -0.000000
  170        2.039920  -0.000000
  171        2.090042  -0.000000
  172        2.247279  -0.000000
  173        2.380931  -0.000000
  174        2.495907  -0.000000
  175        2.541443  -0.000000
  176        3.116536  -0.000000

  0.2000000E+00  0.3742002E-15  0.1262379E-14  0.4444444E-01
    1      -13.779912   1.000000
    2      -12.878643   1.000000
    3      -12.639063   1.000000
    4      -12.065902   1.000000
    5      -11.892243   1.000000
    6      -11.801631   1.000000
    7      -11.297691   1.000000
    8      -11.252196   1.000000
    9      -11.138131   1.000000
   10      -11.064679   1.000000
   11      -10.983513   1.000000
   12      -10.847796   1.000000
   13      -10.598281   1.000000
   14      -10.452633   1.000000
   15      -10.324946   1.000000
   16      -10.143220   1.000000
   17      -10.105403   1.000000
   18      -10.002639   1.000000
   19       -9.751290   1.000000
   20       -9.639662   1.000000
   21       -9.436797   1.000000
   22       -9.393501   1.000000
   23       -9.243737   1.000000
   24       -9.086615   1.000000
   25       -8.824978   1.000000
   26       -8.709758   1.000000
   27       -8.303520   1.000000
   28       -8.194570   1.000000
   29       -8.092653   1.000000
   30       -7.982655   1.000000
   31       -7.935065   1.000000
   32       -7.807216   1.000000
   33       -7.446541   1.000000
   34       -7.364810   1.000000
   35       -7.319216   1.000000
   36       -7.142422   1.000000
   37       -7.084559   1.000000
   38       -6.852947   1.000000
   39       -6.752269   1.000000
   40       -6.708393   1.000000
   41       -6.677194   1.000000
   42       -6.525507   1.000000
   43       -6.494899   1.000000
   44       -6.370816   1.000000
   45       -6.238110   1.000000
   46       -6.106905   1.000000
   47       -5.942632   1.000000
   48       -5.841913   1.000000
   49       -5.803179   1.000000
   50       -5.773700   1.000000
   51       -5.709891   1.000000
   52       -5.657767   1.000000
   53       -5.616934   1.000000
   54       -5.401691   1.000000
   55       -5.359029   1.000000
   56       -5.304630   1.000000
   57       -5.215491   1.000000
   58       -5.131115   1.000000
   59       -5.047270   1.000000
   60       -4.997723   1.000000
   61       -4.928497   1.000000
   62       -4.859559   1.000000
   63       -4.815115   1.000000
   64       -4.683815   1.000000
   65       -4.586884   1.000000
   66       -4.525308   1.000000
   67       -4.491394   1.000000
   68       -4.406678   1.000000
   69       -4.326921   1.000000
   70       -4.286550   1.000000
   71       -4.239099   1.000000
   72       -4.141533   1.000000
   73       -4.067969   1.000000
   74       -4.023463   1.000000
   75       -4.006560   1.000000
   76       -3.916038   1.000000
   77       -3.871632   1.000000
   78       -3.849828   1.000000
   79       -3.819345   1.000000
   80       -3.730239   1.000000
   81       -3.709673   1.000000
   82       -3.640916   1.000000
   83       -3.587468   1.000000
   84       -3.524346   1.000000
   85       -3.406440   1.000000
   86       -3.355654   1.000000
   87       -3.350711   1.000000
   88       -3.206795   1.000000
   89       -3.193116   1.000000
   90       -3.116951   1.000000
   91       -3.020458   1.000000
   92       -3.006031   1.000000
   93       -2.882855   1.000000
   94       -2.791106   1.000000
   95       -2.736337   1.000000
   96       -2.681879   1.000000
   97       -2.569442   1.000000
   98       -2.534781   1.000000
   99       -2.472535   1.000000
  100       -2.370386   1.000000
  101       -2.329170   1.000000
  102       -2.307314   1.000000
  103       -2.231647   1.000000
  104       -2.200079   1.000000
  105       -2.134480   1.000000
  106       -2.084931   1.000000
  107       -2.010689   1.000000
  108       -1.976283   1.000000
  109       -1.877898   1.000000
  110       -1.840376   1.000000
  111       -1.759768   1.000000
  112       -1.683511   1.000000
  113       -1.605348   1.000000
  114       -1.564866   1.000000
  115       -1.465212   1.000000
  116       -1.414545   1.000000
  117       -1.359199   1.000000
  118       -1.155966   1.000000
  119       -1.081796   1.000000
  120       -1.043965   1.000000
  121       -0.995177   1.000000
  122       -0.941758   1.000000
  123       -0.742504   1.000000
  124       -0.579891   1.000000
  125       -0.531982   1.000001
  126       -0.426501   1.000018
  127       -0.392723   1.000050
  128       -0.307462   1.000491
  129       -0.145070   1.011847
  130       -0.073492   1.027052
  131        0.034627   1.022064
  132        0.088403   0.961218
  133        0.196952   0.634416
  134        0.227821   0.505741
  135        0.254422   0.394120
  136        0.330503   0.126284
  137        0.419509  -0.019356
  138        0.503258  -0.032798
  139        0.528455  -0.027812
  140        0.630303  -0.007850
  141        0.724116  -0.001296
  142        0.747350  -0.000764
  143        0.812191  -0.000149
  144        0.879385  -0.000021
  145        0.990085  -0.000001
  146        1.025160  -0.000000
  147        1.084715  -0.000000
  148        1.159685  -0.000000
  149        1.171271  -0.000000
  150        1.237424  -0.000000
  151        1.291669  -0.000000
  152        1.308401  -0.000000
  153        1.346264  -0.000000
  154        1.405218  -0.000000
  155        1.428884  -0.000000
  156        1.488118  -0.000000
  157        1.508385  -0.000000
  158        1.530354  -0.000000
  159        1.565880  -0.000000
  160        1.607052  -0.000000
  161        1.644473  -0.000000
  162        1.665362  -0.000000
  163        1.686816  -0.000000
  164        1.697568  -0.000000
  165        1.727830  -0.000000
  166        1.784009  -0.000000
  167        1.817204  -0.000000
  168        1.841279  -0.000000
  169        1.928396  -0.000000
  170        2.003592  -0.000000
  171        2.241606  -0.000000
  172        2.276031  -0.000000
  173        2.354897  -0.000000
  174        2.412043  -0.000000
  175        2.584710  -0.000000
  176        3.355624  -0.000000

  0.4000000E+00  0.3742002E-15  0.1262379E-14  0.4444444E-01
    1      -13.725532   1.000000
    2      -13.079307   1.000000
    3      -12.551049   1.000000
    4      -12.232578   1.000000
    5      -11.799272   1.000000
    6      -11.499353   1.000000
    7      -11.336130   1.000000
    8      -11.254693   1.000000
    9      -11.016456   1.000000
   10      -10.995719   1.000000
   11      -10.863334   1.000000
   12      -10.841713   1.000000
   13      -10.630955   1.000000
   14      -10.546788   1.000000
   15      -10.440665   1.000000
   16      -10.395464   1.000000
   17      -10.114929   1.000000
   18      -10.035022   1.000000
   19       -9.995833   1.000000
   20       -9.788477   1.000000
   21       -9.414073   1.000000
   22       -9.267924   1.000000
   23       -9.176980   1.000000
   24       -9.043674   1.000000
   25       -8.898445   1.000000
   26       -8.605210   1.000000
   27       -8.151711   1.000000
   28       -8.021640   1.000000
   29       -7.914350   1.000000
   30       -7.865423   1.000000
   31       -7.736276   1.000000
   32       -7.649568   1.000000
   33       -7.532303   1.000000
   34       -7.459348   1.000000
   35       -7.321825   1.000000
   36       -7.308986   1.000000
   37       -7.201810   1.000000
   38       -7.118778   1.000000
   39       -6.946591   1.000000
   40       -6.794501   1.000000
   41       -6.722996   1.000000
   42       -6.636942   1.000000
   43       -6.440410   1.000000
   44       -6.388883   1.000000
   45       -6.175224   1.000000
   46       -6.105420   1.000000
   47       -5.953426   1.000000
   48       -5.906609   1.000000
   49       -5.805589   1.000000
   50       -5.794385   1.000000
   51       -5.683081   1.000000
   52       -5.583547   1.000000
   53       -5.465565   1.000000
   54       -5.412012   1.000000
   55       -5.353505   1.000000
   56       -5.295005   1.000000
   57       -5.221646   1.000000
   58       -5.188115   1.000000
   59       -5.072448   1.000000
   60       -4.949302   1.000000
   61       -4.806669   1.000000
   62       -4.793181   1.000000
   63       -4.704270   1.000000
   64       -4.627397   1.000000
   65       -4.564804   1.000000
   66       -4.503141   1.000000
   67       -4.406204   1.000000
   68       -4.381711   1.000000
   69       -4.312196   1.000000
   70       -4.280331   1.000000
   71       -4.208310   1.000000
   72       -4.169218   1.000000
   73       -4.058101   1.000000
   74       -4.017026   1.000000
   75       -3.994427   1.000000
   76       -3.958123   1.000000
   77       -3.932023   1.000000
   78       -3.863413   1.000000
   79       -3.808915   1.000000
   80       -3.786835   1.000000
   81       -3.776505   1.000000
   82       -3.691322   1.000000
   83       -3.650585   1.000000
   84       -3.503025   1.000000
   85       -3.481992   1.000000
   86       -3.385730   1.000000
   87       -3.336197   1.000000
   88       -3.212415   1.000000
   89       -3.189500   1.000000
   90       -3.157052   1.000000
   91       -2.989683   1.000000
   92       -2.964068   1.000000
   93       -2.913246   1.000000
   94       -2.904855   1.000000
   95       -2.775349   1.000000
   96       -2.671169   1.000000
   97       -2.659232   1.000000
   98       -2.603884   1.000000
   99       -2.432495   1.000000
  100       -2.394622   1.000000
  101       -2.352656   1.000000
  102       -2.311343   1.000000
  103       -2.226709   1.000000
  104       -2.120537   1.000000
  105       -2.084567   1.000000
  106       -2.040798   1.000000
  107       -1.994385   1.000000
  108       -1.909484   1.000000
  109       -1.782104   1.000000
  110       -1.765224   1.000000
  111       -1.713060   1.000000
  112       -1.568081   1.000000
  113       -1.539315   1.000000
  114       -1.458269   1.000000
  115       -1.442012   1.000000
  116       -1.367921   1.000000
  117       -1.311797   1.000000
  118       -1.161530   1.000000
  119       -1.107482   1.000000
  120       -1.093148   1.000000
  121       -1.004611   1.000000
  122       -0.950167   1.000000
  123       -0.835607   1.000000
  124       -0.687155   1.000000
  125       -0.629620   1.000000
  126       -0.551940   1.000000
  127       -0.546528   1.000000
  128       -0.411820   1.000028
  129       -0.306769   1.000500
  130       -0.165058   1.008765
  131        0.052553   1.008364
  132        0.061475   0.999255
  133        0.179097   0.704720
  134        0.205715   0.598527
  135        0.257407   0.381860
  136        0.340075   0.101456
  137        0.440329  -0.029988
  138        0.486272  -0.034935
  139        0.557424  -0.021171
  140        0.668750  -0.004008
  141        0.699827  -0.002175
  142        0.784345  -0.000309
  143        0.876954  -0.000023
  144        0.897748  -0.000012
  145        1.024581  -0.000000
  146        1.053654  -0.000000
  147        1.111427  -0.000000
  148        1.174251  -0.000000
  149        1.260536  -0.000000
  150        1.315284  -0.000000
  151        1.333993  -0.000000
  152        1.349085  -0.000000
  153        1.417395  -0.000000
  154        1.443463  -0.000000
  155        1.512111  -0.000000
  156        1.526250  -0.000000
  157        1.543666  -0.000000
  158        1.559187  -0.000000
  159        1.605005  -0.000000
  160        1.634830  -0.000000
  161        1.678659  -0.000000
  162        1.712974  -0.000000
  163        1.724343  -0.000000
  164        1.751802  -0.000000
  165        1.794065  -0.000000
  166        1.811147  -0.000000
  167        1.858084  -0.000000
  168        1.873006  -0.000000
  169        2.005761  -0.000000
  170        2.033314  -0.000000
  171        2.083081  -0.000000
  172        2.179598  -0.000000
  173        2.318130  -0.000000
  174        2.356306  -0.000000
  175        2.572268  -0.000000
  176        3.040854  -0.000000

  0.3742002E-15  0.1111111E+00  0.1262379E-14  0.4444444E-01
    1      -13.761364   1.000000
    2      -12.713939   1.000000
    3      -12.500919   1.000000
    4      -12.340838   1.000000
    5      -11.884499   1.000000
    6      -11.574628   1.000000
    7      -11.507474   1.000000
    8      -11.309441   1.000000
    9      -11.267233   1.000000
   10      -11.164160   1.000000
   11      -10.991773   1.000000
   12      -10.861115   1.000000
   13      -10.651574   1.000000
   14      -10.316776   1.000000
   15      -10.172780   1.000000
   16      -10.116635   1.000000
   17       -9.997397   1.000000
   18       -9.947399   1.000000
   19       -9.696950   1.000000
   20       -9.613233   1.000000
   21       -9.420447   1.000000
   22       -9.370325   1.000000
   23       -9.289518   1.000000
   24       -9.141148   1.000000
   25       -8.852451   1.000000
   26       -8.728252   1.000000
   27       -8.518294   1.000000
   28       -8.268044   1.000000
   29       -8.172806   1.000000
   30       -8.062403   1.000000
   31       -7.885293   1.000000
   32       -7.711473   1.000000
   33       -7.592921   1.000000
   34       -7.382952   1.000000
   35       -7.279901   1.000000
   36       -7.156992   1.000000
   37       -7.070803   1.000000
   38       -6.799898   1.000000
   39       -6.743641   1.000000
   40       -6.639702   1.000000
   41       -6.532845   1.000000
   42       -6.492840   1.000000
   43       -6.344292   1.000000
   44       -6.257941   1.000000
   45       -6.105243   1.000000
   46       -6.080224   1.000000
   47       -5.996536   1.000000
   48       -5.962818   1.000000
   49       -5.923410   1.000000
   50       -5.802763   1.000000
   51       -5.711475   1.000000
   52       -5.635889   1.000000
   53       -5.517846   1.000000
   54       -5.460736   1.000000
   55       -5.359959   1.000000
   56       -5.296241   1.000000
   57       -5.209097   1.000000
   58       -5.175366   1.000000
   59       -5.050534   1.000000
   60       -4.989403   1.000000
   61       -4.969751   1.000000
   62       -4.921984   1.000000
   63       -4.713132   1.000000
   64       -4.652217   1.000000
   65       -4.594888   1.000000
   66       -4.553728   1.000000
   67       -4.502004   1.000000
   68       -4.399659   1.000000
   69       -4.342545   1.000000
   70       -4.318581   1.000000
   71       -4.276686   1.000000
   72       -4.198887   1.000000
   73       -4.142448   1.000000
   74       -4.087035   1.000000
   75       -3.940395   1.000000
   76       -3.892300   1.000000
   77       -3.876431   1.000000
   78       -3.834628   1.000000
   79       -3.780995   1.000000
   80       -3.739430   1.000000
   81       -3.668702   1.000000
   82       -3.594614   1.000000
   83       -3.545132   1.000000
   84       -3.495161   1.000000
   85       -3.442852   1.000000
   86       -3.367813   1.000000
   87       -3.275162   1.000000
   88       -3.210211   1.000000
   89       -3.202045   1.000000
   90       -3.117356   1.000000
   91       -3.045513   1.000000
   92       -2.979555   1.000000
   93       -2.948270   1.000000
   94       -2.889108   1.000000
   95       -2.787895   1.000000
   96       -2.713595   1.000000
   97       -2.625494   1.000000
   98       -2.557496   1.000000
   99       -2.423154   1.000000
  100       -2.391075   1.000000
  101       -2.353355   1.000000
  102       -2.274467   1.000000
  103       -2.249582   1.000000
  104       -2.222374   1.000000
  105       -2.155151   1.000000
  106       -2.119821   1.000000
  107       -2.052201   1.000000
  108       -2.036291   1.000000
  109       -1.944334   1.000000
  110       -1.865799   1.000000
  111       -1.778281   1.000000
  112       -1.726679   1.000000
  113       -1.621981   1.000000
  114       -1.567134   1.000000
  115       -1.439367   1.000000
  116       -1.384228   1.000000
  117       -1.338958   1.000000
  118       -1.179236   1.000000
  119       -1.070320   1.000000
  120       -0.994945   1.000000
  121       -0.969671   1.000000
  122       -0.786184   1.000000
  123       -0.676028   1.000000
  124       -0.590412   1.000000
  125       -0.482816   1.000003
  126       -0.434071   1.000014
  127       -0.293579   1.000686
  128       -0.221696   1.003231
  129       -0.151205   1.010833
  130       -0.105879   1.019637
  131        0.038079   1.019871
  132        0.086411   0.964610
  133        0.175732   0.717444
  134        0.218269   0.546081
  135        0.305640   0.201185
  136        0.394188   0.003818
  137        0.435023  -0.027900
  138        0.478370  -0.035390
  139        0.539238  -0.025364
  140        0.596207  -0.013117
  141        0.708949  -0.001798
  142        0.773876  -0.000403
  143        0.795132  -0.000234
  144        0.889371  -0.000016
  145        0.912438  -0.000008
  146        0.997117  -0.000000
  147        1.102450  -0.000000
  148        1.133160  -0.000000
  149        1.142353  -0.000000
  150        1.204989  -0.000000
  151        1.260091  -0.000000
  152        1.283369  -0.000000
  153        1.330467  -0.000000
  154        1.379117  -0.000000
  155        1.410058  -0.000000
  156        1.478590  -0.000000
  157        1.490733  -0.000000
  158        1.512188  -0.000000
  159        1.523962  -0.000000
  160        1.540440  -0.000000
  161        1.569383  -0.000000
  162        1.603672  -0.000000
  163        1.654265  -0.000000
  164        1.671194  -0.000000
  165        1.721985  -0.000000
  166        1.758526  -0.000000
  167        1.812773  -0.000000
  168        1.870353  -0.000000
  169        1.935872  -0.000000
  170        2.052194  -0.000000
  171        2.108622  -0.000000
  172        2.138257  -0.000000
  173        2.381617  -0.000000
  174        2.384948  -0.000000
  175        2.604390  -0.000000
  176        3.508701  -0.000000

  0.2000000E+00  0.1111111E+00  0.1262379E-14  0.4444444E-01
    1      -13.734545   1.000000
    2      -12.838960   1.000000
    3      -12.601017   1.000000
    4      -12.033259   1.000000
    5      -11.887045   1.000000
    6      -11.856917   1.000000
    7      -11.350594   1.000000
    8      -11.286144   1.000000
    9      -11.113642   1.000000
   10      -11.086929   1.000000
   11      -10.958703   1.000000
   12      -10.870164   1.000000
   13      -10.623388   1.000000
   14      -10.440067   1.000000
   15      -10.327070   1.000000
   16      -10.152470   1.000000
   17      -10.090135   1.000000
   18      -10.020112   1.000000
   19       -9.742739   1.000000
   20       -9.633263   1.000000
   21       -9.439581   1.000000
   22       -9.396968   1.000000
   23       -9.239302   1.000000
   24       -9.095560   1.000000
   25       -8.820992   1.000000
   26       -8.700161   1.000000
   27       -8.296046   1.000000
   28       -8.201124   1.000000
   29       -8.111152   1.000000
   30       -8.001778   1.000000
   31       -7.922247   1.000000
   32       -7.677262   1.000000
   33       -7.514218   1.000000
   34       -7.445604   1.000000
   35       -7.312616   1.000000
   36       -7.190224   1.000000
   37       -7.105216   1.000000
   38       -6.849339   1.000000
   39       -6.792434   1.000000
   40       -6.681742   1.000000
   41       -6.615585   1.000000
   42       -6.507437   1.000000
   43       -6.427680   1.000000
   44       -6.355584   1.000000
   45       -6.254720   1.000000
   46       -6.149180   1.000000
   47       -6.000038   1.000000
   48       -5.889887   1.000000
   49       -5.801484   1.000000
   50       -5.748198   1.000000
   51       -5.666725   1.000000
   52       -5.615869   1.000000
   53       -5.572491   1.000000
   54       -5.407865   1.000000
   55       -5.375613   1.000000
   56       -5.298578   1.000000
   57       -5.143975   1.000000
   58       -5.094550   1.000000
   59       -5.042408   1.000000
   60       -4.984566   1.000000
   61       -4.886982   1.000000
   62       -4.834829   1.000000
   63       -4.785581   1.000000
   64       -4.700900   1.000000
   65       -4.591202   1.000000
   66       -4.480248   1.000000
   67       -4.472756   1.000000
   68       -4.379873   1.000000
   69       -4.349572   1.000000
   70       -4.293707   1.000000
   71       -4.244332   1.000000
   72       -4.167949   1.000000
   73       -4.127782   1.000000
   74       -4.081961   1.000000
   75       -3.981905   1.000000
   76       -3.935748   1.000000
   77       -3.875519   1.000000
   78       -3.837108   1.000000
   79       -3.814948   1.000000
   80       -3.741407   1.000000
   81       -3.671212   1.000000
   82       -3.655024   1.000000
   83       -3.600650   1.000000
   84       -3.511442   1.000000
   85       -3.451562   1.000000
   86       -3.369542   1.000000
   87       -3.305850   1.000000
   88       -3.243288   1.000000
   89       -3.187836   1.000000
   90       -3.124069   1.000000
   91       -3.063271   1.000000
   92       -2.978440   1.000000
   93       -2.951813   1.000000
   94       -2.838731   1.000000
   95       -2.776754   1.000000
   96       -2.718712   1.000000
   97       -2.641748   1.000000
   98       -2.534429   1.000000
   99       -2.508313   1.000000
  100       -2.425758   1.000000
  101       -2.364384   1.000000
  102       -2.318926   1.000000
  103       -2.260883   1.000000
  104       -2.171478   1.000000
  105       -2.111065   1.000000
  106       -2.066129   1.000000
  107       -2.030167   1.000000
  108       -1.979405   1.000000
  109       -1.915422   1.000000
  110       -1.897006   1.000000
  111       -1.728119   1.000000
  112       -1.654088   1.000000
  113       -1.573688   1.000000
  114       -1.516769   1.000000
  115       -1.451101   1.000000
  116       -1.379075   1.000000
  117       -1.324659   1.000000
  118       -1.186878   1.000000
  119       -1.118391   1.000000
  120       -1.035080   1.000000
  121       -1.009471   1.000000
  122       -0.869121   1.000000
  123       -0.683059   1.000000
  124       -0.626431   1.000000
  125       -0.523761   1.000001
  126       -0.487070   1.000003
  127       -0.349221   1.000169
  128       -0.212513   1.003851
  129       -0.189957   1.005798
  130       -0.110588   1.018599
  131        0.010042   1.032419
  132        0.078504   0.977136
  133        0.175991   0.716472
  134        0.227843   0.505649
  135        0.270722   0.328347
  136        0.340628   0.100091
  137        0.435848  -0.028251
  138        0.456634  -0.034134
  139        0.602347  -0.012032
  140        0.659195  -0.004779
  141        0.697335  -0.002289
  142        0.787383  -0.000286
  143        0.798201  -0.000216
  144        0.912516  -0.000008
  145        0.975525  -0.000001
  146        1.020210  -0.000000
  147        1.088243  -0.000000
  148        1.142754  -0.000000
  149        1.182238  -0.000000
  150        1.224744  -0.000000
  151        1.291577  -0.000000
  152        1.323484  -0.000000
  153        1.369134  -0.000000
  154        1.389489  -0.000000
  155        1.445927  -0.000000
  156        1.481280  -0.000000
  157        1.510663  -0.000000
  158        1.525519  -0.000000
  159        1.540063  -0.000000
  160        1.567780  -0.000000
  161        1.594214  -0.000000
  162        1.626739  -0.000000
  163        1.638706  -0.000000
  164        1.667173  -0.000000
  165        1.713554  -0.000000
  166        1.752406  -0.000000
  167        1.795786  -0.000000
  168        1.837118  -0.000000
  169        1.912901  -0.000000
  170        1.990715  -0.000000
  171        2.034121  -0.000000
  172        2.063368  -0.000000
  173        2.129071  -0.000000
  174        2.214452  -0.000000
  175        2.324472  -0.000000
  176        2.411510  -0.000000

  0.4000000E+00  0.1111111E+00  0.1262379E-14  0.4444444E-01
    1      -13.680721   1.000000
    2      -13.038530   1.000000
    3      -12.513860   1.000000
    4      -12.194987   1.000000
    5      -11.874592   1.000000
    6      -11.492184   1.000000
    7      -11.385979   1.000000
    8      -11.286732   1.000000
    9      -11.012278   1.000000
   10      -10.986538   1.000000
   11      -10.882604   1.000000