   24   24    1    1
  0.8168823E+01  0.6078000E-09  0.6078000E-09  0.6128000E-09  0.5000000E-15
   1.0000000000000000E-004
  CAR 
 Name                                    
     96     60     64

  0.3742002E-15  0.3742002E-15  0.3742002E-15  0.1371742E-02
    1       -5.309780   1.000000
    2       -2.667975   1.000000
    3       -2.243361   1.000000
    4       -2.243355   1.000000
    5       -2.243353   1.000000
    6       -1.562432   1.000000
    7       -1.562430   1.000000
    8       -1.562426   1.000000
    9       -0.696748   1.000000
   10       -0.696742   1.000000
   11       -0.696739   1.000000
   12        0.337422   1.000000
   13        1.290009   1.000000
   14        1.290012   1.000000
   15        1.290016   1.000000
   16        2.559756   1.000000
   17        2.559757   1.000000
   18        2.559758   1.000000
   19        3.080140   1.000000
   20        3.080142   1.000000
   21        3.080144   1.000000
   22        4.271876   1.000000
   23        4.271880   1.000000
   24        4.271883   1.000000
   25        4.366143   1.000000
   26        4.366144   1.000000
   27        4.366147   1.000000
   28        4.391550   1.000000
   29        4.391553   1.000000
   30        4.632654   1.000000
   31        5.167474   1.000000
   32        5.167476   1.000000
   33        5.167479   1.000000
   34        5.693436   1.000000
   35        5.693441   1.000000
   36        5.693443   1.000000
   37        6.677081   1.000000
   38        6.677085   1.000000
   39        7.036908   1.000000
   40        7.598864   1.000000
   41        7.598866   1.000000
   42        7.696005   1.000000
   43        7.696011   1.000000
   44        9.226112   1.000000
   45        9.226114   1.000000
   46        9.226115   1.000000
   47       10.017224   1.035394
   48       10.017226   1.035394
   49       10.585091  -0.000000
   50       10.943447  -0.000000
   51       10.943454  -0.000000
   52       10.943452  -0.000000
   53       11.426008  -0.000000
   54       11.735761  -0.000000
   55       11.801171  -0.000000
   56       12.294585  -0.000000
   57       12.294622  -0.000000
   58       12.294628  -0.000000
   59       13.972599   0.000000
   60       13.974542   0.000000
   61       13.979055   0.000000
   62       14.216883   0.000000
   63       14.218438   0.000000
   64       14.260985   0.000000

  0.1111111E+00  0.3654210E-15  0.3742002E-15  0.8230453E-02
    1       -5.246990   1.000000
    2       -2.661447   1.000000
    3       -2.267051   1.000000
    4       -2.217386   1.000000
    5       -2.217381   1.000000
    6       -1.983142   1.000000
    7       -1.648201   1.000000
    8       -1.648198   1.000000
    9       -0.535279   1.000000
   10       -0.535274   1.000000
   11       -0.258160   1.000000
   12        0.427698   1.000000
   13        1.147343   1.000000
   14        1.147347   1.000000
   15        1.396172   1.000000
   16        2.618728   1.000000
   17        2.681454   1.000000
   18        2.681455   1.000000
   19        3.068668   1.000000
   20        3.146361   1.000000
   21        3.146363   1.000000
   22        3.956511   1.000000
   23        3.956513   1.000000
   24        4.247630   1.000000
   25        4.318608   1.000000
   26        4.323582   1.000000
   27        4.323587   1.000000
   28        4.423243   1.000000
   29        4.426041   1.000000
   30        4.670178   1.000000
   31        5.158790   1.000000
   32        5.576608   1.000000
   33        5.576609   1.000000
   34        5.576801   1.000000
   35        5.599355   1.000000
   36        5.599359   1.000000
   37        6.115920   1.000000
   38        6.133637   1.000000
   39        6.839320   1.000000
   40        7.417773   1.000000
   41        7.679961   1.000000
   42        8.234747   1.000000
   43        8.315016   1.000000
   44        8.916884   1.000000
   45        8.916886   1.000000
   46        9.247828   1.000000
   47        9.990893   1.029056
   48       10.278720  -0.031388
   49       10.610873  -0.000000
   50       10.813574  -0.000000
   51       10.813574  -0.000000
   52       10.912144  -0.000000
   53       11.221477  -0.000000
   54       11.455514  -0.000000
   55       11.643445  -0.000000
   56       11.718107  -0.000000
   57       12.350643  -0.000000
   58       12.538923  -0.000000
   59       12.591322  -0.000000
   60       12.693376  -0.000000
   61       12.694671  -0.000000
   62       13.576060   0.000000
   63       13.726865   0.000000
   64       13.779717   0.000000

  0.2222222E+00  0.3925573E-15  0.3742002E-15  0.8230453E-02
    1       -5.060885   1.000000
    2       -2.641299   1.000000
    3       -2.632510   1.000000
    4       -2.328746   1.000000
    5       -2.147455   1.000000
    6       -2.147449   1.000000
    7       -1.799353   1.000000
    8       -1.799352   1.000000
    9       -0.164600   1.000000
   10       -0.164597   1.000000
   11        0.446852   1.000000
   12        0.692235   1.000000
   13        0.851036   1.000000
   14        0.851039   1.000000
   15        1.702776   1.000000
   16        2.795083   1.000000
   17        2.920432   1.000000
   18        2.920433   1.000000
   19        2.982707   1.000000
   20        3.311716   1.000000
   21        3.311718   1.000000
   22        3.338888   1.000000
   23        3.338891   1.000000
   24        3.851472   1.000000
   25        4.458677   1.000000
   26        4.468530   1.000000
   27        4.468534   1.000000
   28        4.522974   1.000000
   29        4.576709   1.000000
   30        4.770840   1.000000
   31        5.128043   1.000000
   32        5.242473   1.000000
   33        5.338792   1.000000
   34        5.338796   1.000000
   35        5.344587   1.000000
   36        5.355473   1.000000
   37        6.226436   1.000000
   38        6.226437   1.000000
   39        6.393671   1.000000
   40        6.962069   1.000000
   41        7.920013   1.000000
   42        8.290176   1.000000
   43        8.290178   1.000000
   44        9.048598   1.000000
   45        9.311020   1.000000
   46        9.314227   1.000000
   47        9.916077   1.003742
   48       10.378145  -0.001755
   49       10.378146  -0.001754
   50       10.685922  -0.000000
   51       10.739466  -0.000000
   52       10.843740  -0.000000
   53       10.901589  -0.000000
   54       11.180641  -0.000000
   55       11.403446  -0.000000
   56       11.564080  -0.000000
   57       11.579404  -0.000000
   58       11.760906  -0.000000
   59       11.977794  -0.000000
   60       12.497328  -0.000000
   61       12.823932  -0.000000
   62       13.340976   0.000000
   63       13.403044   0.000000
   64       13.596177   0.000000

  0.3333333E+00  0.3368708E-15  0.3742002E-15  0.8230453E-02
    1       -4.758023   1.000000
    2       -3.267238   1.000000
    3       -2.606116   1.000000
    4       -2.408213   1.000000
    5       -2.059077   1.000000
    6       -2.059072   1.000000
    7       -1.920325   1.000000
    8       -1.920324   1.000000
    9        0.288532   1.000000
   10        0.288535   1.000000
   11        0.565717   1.000000
   12        0.565720   1.000000
   13        1.110622   1.000000
   14        1.181109   1.000000
   15        2.182537   1.000000
   16        2.677371   1.000000
   17        2.677372   1.000000
   18        2.704298   1.000000
   19        3.087934   1.000000
   20        3.131662   1.000000
   21        3.131663   1.000000
   22        3.284295   1.000000
   23        3.637636   1.000000
   24        3.637639   1.000000
   25        4.365508   1.000000
   26        4.637224   1.000000
   27        4.663223   1.000000
   28        4.667861   1.000000
   29        4.667867   1.000000
   30        4.691062   1.000000
   31        4.771800   1.000000
   32        4.892037   1.000000
   33        4.966554   1.000000
   34        4.966558   1.000000
   35        5.064304   1.000000
   36        5.252708   1.000000
   37        5.890053   1.000000
   38        6.396498   1.000000
   39        6.887661   1.000000
   40        6.887662   1.000000
   41        7.686803   1.000000
   42        7.686806   1.000000
   43        8.308829   1.000000
   44        9.409772   1.000000
   45        9.736046   1.000000
   46        9.736047   1.000000
   47        9.804174   1.000013
   48        9.851727   1.000200
   49       10.109098   0.731309
   50       10.381585  -0.001514
   51       10.718747  -0.000000
   52       10.801680  -0.000000
   53       10.803106  -0.000000
   54       11.053183  -0.000000
   55       11.260009  -0.000000
   56       11.374320  -0.000000
   57       11.374398  -0.000000
   58       11.437888  -0.000000
   59       11.502496  -0.000000
   60       11.502740  -0.000000
   61       11.643146  -0.000000
   62       12.097052  -0.000000
   63       12.653736  -0.000000
   64       13.097001   0.000000

  0.4444444E+00  0.3565269E-15  0.3742002E-15  0.8230453E-02
    1       -4.348703   1.000000
    2       -3.846341   1.000000
    3       -2.554599   1.000000
    4       -2.487171   1.000000
    5       -1.994820   1.000000
    6       -1.994814   1.000000
    7       -1.984090   1.000000
    8       -1.984089   1.000000
    9        0.392516   1.000000
   10        0.392519   1.000000
   11        0.684908   1.000000
   12        0.684910   1.000000
   13        1.642639   1.000000
   14        1.911571   1.000000
   15        2.190652   1.000000
   16        2.190654   1.000000
   17        2.214940   1.000000
   18        2.621378   1.000000
   19        2.805065   1.000000
   20        3.249908   1.000000
   21        3.249910   1.000000
   22        3.495144   1.000000
   23        3.542073   1.000000
   24        3.987866   1.000000
   25        3.987868   1.000000
   26        4.013436   1.000000
   27        4.570307   1.000000
   28        4.570311   1.000000
   29        4.818743   1.000000
   30        4.830376   1.000000
   31        4.830382   1.000000
   32        4.924637   1.000000
   33        4.959487   1.000000
   34        4.964553   1.000000
   35        5.013009   1.000000
   36        5.417789   1.000000
   37        5.441083   1.000000
   38        5.855407   1.000000
   39        7.305986   1.000000
   40        7.305989   1.000000
   41        7.428514   1.000000
   42        7.428516   1.000000
   43        8.827458   1.000000
   44        9.166475   1.000000
   45        9.166476   1.000000
   46        9.444498   1.000000
   47        9.534266   1.000000
   48        9.671128   1.000000
   49       10.485335  -0.000005
   50       10.596933  -0.000000
   51       10.621488  -0.000000
   52       10.857072  -0.000000
   53       10.950189  -0.000000
   54       11.061971  -0.000000
   55       11.109722  -0.000000
   56       11.347386  -0.000000
   57       11.347428  -0.000000
   58       11.365495  -0.000000
   59       11.451171  -0.000000
   60       11.471064  -0.000000
   61       11.471067  -0.000000
   62       12.290727  -0.000000
   63       12.465070  -0.000000
   64       12.648003  -0.000000

  0.1111111E+00  0.1111111E+00  0.3742002E-15  0.8230453E-02
    1       -5.122525   1.000000
    2       -2.648059   1.000000
    3       -2.267097   1.000000
    4       -2.267094   1.000000
    5       -2.260173   1.000000
    6       -2.260171   1.000000
    7       -2.112370   1.000000
    8       -1.342609   1.000000
    9       -0.632166   1.000000
   10        0.109668   1.000000
   11        0.109670   1.000000
   12        0.605252   1.000000
   13        0.732980   1.000000
   14        1.361429   1.000000
   15        1.361434   1.000000
   16        2.793666   1.000000
   17        2.793666   1.000000
   18        2.872613   1.000000
   19        3.113149   1.000000
   20        3.113151   1.000000
   21        3.253994   1.000000
   22        3.343257   1.000000
   23        3.985554   1.000000
   24        4.054361   1.000000
   25        4.054363   1.000000
   26        4.411291   1.000000
   27        4.411294   1.000000
   28        4.434468   1.000000
   29        4.473458   1.000000
   30        4.749977   1.000000
   31        5.394282   1.000000
   32        5.394285   1.000000
   33        5.450081   1.000000
   34        5.461784   1.000000
   35        5.568603   1.000000
   36        5.568604   1.000000
   37        5.592903   1.000000
   38        6.237161   1.000000
   39        6.525485   1.000000
   40        7.100085   1.000000
   41        7.842089   1.000000
   42        8.234279   1.000000
   43        8.816409   1.000000
   44        8.982418   1.000000
   45        8.982420   1.000000
   46        9.047341   1.000000
   47        9.929804   1.006146
   48       10.555590  -0.000000
   49       10.652897  -0.000000
   50       10.652899  -0.000000
   51       10.661340  -0.000000
   52       10.724647  -0.000000
   53       11.101561  -0.000000
   54       11.101752  -0.000000
   55       11.517975  -0.000000
   56       11.530418  -0.000000
   57       11.545905  -0.000000
   58       12.022382  -0.000000
   59       12.097384  -0.000000
   60       12.784397  -0.000000
   61       12.784579  -0.000000
   62       13.131334   0.000000
   63       13.133586   0.000000
   64       13.600403   0.000000

  0.2222222E+00  0.1111111E+00  0.3742002E-15  0.1646091E-01
    1       -4.877933   1.000000
    2       -2.912162   1.000000
    3       -2.620000   1.000000
    4       -2.460919   1.000000
    5       -2.347145   1.000000
    6       -2.235218   1.000000
    7       -1.962807   1.000000
    8       -1.262189   1.000000
    9       -0.365691   1.000000
   10        0.304402   1.000000
   11        0.529573   1.000000
   12        0.831008   1.000000
   13        0.947966   1.000000
   14        1.184686   1.000000
   15        1.765061   1.000000
   16        2.531544   1.000000
   17        2.945235   1.000000
   18        3.017186   1.000000
   19        3.061089   1.000000
   20        3.063147   1.000000
   21        3.264582   1.000000
   22        3.475964   1.000000
   23        3.520691   1.000000
   24        3.642663   1.000000
   25        4.219631   1.000000
   26        4.529781   1.000000
   27        4.572055   1.000000
   28        4.586572   1.000000
   29        4.616494   1.000000
   30        4.639152   1.000000
   31        4.908520   1.000000
   32        4.939794   1.000000
   33        5.096566   1.000000
   34        5.193563   1.000000
   35        5.200272   1.000000
   36        5.536349   1.000000
   37        6.072622   1.000000
   38        6.175115   1.000000
   39        6.593796   1.000000
   40        6.949040   1.000000
   41        7.517751   1.000000
   42        8.160983   1.000000
   43        8.450646   1.000000
   44        9.105047   1.000000
   45        9.546835   1.000000
   46        9.807550   1.000016
   47       10.022893   1.034450
   48       10.059337   0.985700
   49       10.112094   0.708907
   50       10.418120  -0.000267
   51       10.522679  -0.000000
   52       10.757702  -0.000000
   53       11.078201  -0.000000
   54       11.234368  -0.000000
   55       11.249831  -0.000000
   56       11.315094  -0.000000
   57       11.345622  -0.000000
   58       11.422384  -0.000000
   59       11.539806  -0.000000
   60       11.571519  -0.000000
   61       12.438714  -0.000000
   62       12.761393  -0.000000
   63       12.919205   0.000000
   64       13.667011   0.000000

  0.3333333E+00  0.1111111E+00  0.3742002E-15  0.1646091E-01
    1       -4.521474   1.000000
    2       -3.522413   1.000000
    3       -2.581534   1.000000
    4       -2.575354   1.000000
    5       -2.434395   1.000000
    6       -2.197836   1.000000
    7       -1.809144   1.000000
    8       -1.302150   1.000000
    9       -0.034550   1.000000
   10        0.113425   1.000000
   11        0.934396   1.000000
   12        1.027135   1.000000
   13        1.427824   1.000000
   14        1.553652   1.000000
   15        1.861405   1.000000
   16        2.324522   1.000000
   17        2.545980   1.000000
   18        2.925345   1.000000
   19        2.964124   1.000000
   20        3.189571   1.000000
   21        3.270489   1.000000
   22        3.349905   1.000000
   23        3.471827   1.000000
   24        3.783312   1.000000
   25        4.016352   1.000000
   26        4.323390   1.000000
   27        4.395646   1.000000
   28        4.559160   1.000000
   29        4.738221   1.000000
   30        4.778025   1.000000
   31        4.835032   1.000000
   32        4.848308   1.000000
   33        4.884214   1.000000
   34        5.110675   1.000000
   35        5.250166   1.000000
   36        5.454436   1.000000
   37        5.608967   1.000000
   38        6.044513   1.000000
   39        6.701071   1.000000
   40        6.938935   1.000000
   41        7.671470   1.000000
   42        7.998914   1.000000
   43        8.621794   1.000000
   44        9.269493   1.000000
   45        9.476807   1.000000
   46        9.483387   1.000000
   47        9.642722   1.000000
   48        9.854851   1.000236
   49       10.267144  -0.034775
   50       10.290054  -0.026584
   51       10.712303  -0.000000
   52       10.890211  -0.000000
   53       11.036961  -0.000000
   54       11.058964  -0.000000
   55       11.065593  -0.000000
   56       11.083423  -0.000000
   57       11.200232  -0.000000
   58       11.205459  -0.000000
   59       11.580253  -0.000000
   60       11.732724  -0.000000
   61       12.164742  -0.000000
   62       12.510786  -0.000000
   63       12.974684   0.000000
   64       13.058324   0.000000

  0.4444444E+00  0.1111111E+00  0.3742002E-15  0.8230453E-02
    1       -4.064797   1.000000
    2       -4.064791   1.000000
    3       -2.621692   1.000000
    4       -2.512940   1.000000
    5       -2.512936   1.000000
    6       -2.181467   1.000000
    7       -1.736986   1.000000
    8       -1.323526   1.000000
    9       -0.171079   1.000000
   10        0.427602   1.000000
   11        0.966514   1.000000
   12        1.135181   1.000000
   13        1.490814   1.000000
   14        1.992274   1.000000
   15        1.992278   1.000000
   16        2.258112   1.000000
   17        2.258115   1.000000
   18        2.726615   1.000000
   19        3.007528   1.000000
   20        3.007532   1.000000
   21        3.234617   1.000000
   22        3.346224   1.000000
   23        3.590642   1.000000
   24        3.787857   1.000000
   25        3.787863   1.000000
   26        4.410728   1.000000
   27        4.445309   1.000000
   28        4.519619   1.000000
   29        4.519623   1.000000
   30        4.617815   1.000000
   31        4.812902   1.000000
   32        5.015039   1.000000
   33        5.192599   1.000000
   34        5.192602   1.000000
   35        5.307317   1.000000
   36        5.307321   1.000000
   37        5.563896   1.000000
   38        5.563899   1.000000
   39        6.693367   1.000000
   40        6.938418   1.000000
   41        7.821641   1.000000
   42        8.148890   1.000000
   43        9.019913   1.000000
   44        9.199750   1.000000
   45        9.199754   1.000000
   46        9.212008   1.000000
   47        9.455998   1.000000
   48        9.456004   1.000000
   49       10.346977  -0.005854
   50       10.346981  -0.005853
   51       10.976741  -0.000000
   52       11.019063  -0.000000
   53       11.019065  -0.000000
   54       11.033361  -0.000000
   55       11.033363  -0.000000
   56       11.043840  -0.000000
   57       11.043914  -0.000000
   58       11.085817  -0.000000
   59       11.344908  -0.000000
   60       12.099564  -0.000000
   61       12.099592  -0.000000
   62       12.430278  -0.000000
   63       12.709579  -0.000000
   64       12.745597  -0.000000

  0.2222222E+00  0.2222222E+00  0.3742002E-15  0.8230453E-02
    1       -4.579466   1.000000
    2       -3.098178   1.000000
    3       -3.098176   1.000000
    4       -2.581506   1.000000
    5       -2.341874   1.000000
    6       -2.341872   1.000000
    7       -1.720466   1.000000
    8       -0.724324   1.000000
    9       -0.433889   1.000000
   10       -0.205133   1.000000
   11        1.222906   1.000000
   12        1.222909   1.000000
   13        1.355467   1.000000
   14        1.690787   1.000000
   15        1.690791   1.000000
   16        1.756470   1.000000
   17        2.973936   1.000000
   18        2.973938   1.000000
   19        3.057648   1.000000
   20        3.169032   1.000000
   21        3.298193   1.000000
   22        3.298195   1.000000
   23        3.718759   1.000000
   24        3.718762   1.000000
   25        3.840987   1.000000
   26        3.991621   1.000000
   27        4.429614   1.000000
   28        4.471886   1.000000
   29        4.747662   1.000000
   30        4.747664   1.000000
   31        4.914592   1.000000
   32        4.977132   1.000000
   33        5.016394   1.000000
   34        5.016395   1.000000
   35        5.168706   1.000000
   36        5.686404   1.000000
   37        6.039463   1.000000
   38        6.039464   1.000000
   39        6.108274   1.000000
   40        6.801923   1.000000
   41        7.722418   1.000000
   42        8.559362   1.000000
   43        8.694971   1.000000
   44        8.694973   1.000000
   45        9.589916   1.000000
   46        9.821260   1.000036
   47        9.866218   1.000421
   48        9.866221   1.000421
   49       10.150975   0.388628
   50       10.421765  -0.000221
   51       10.421766  -0.000221
   52       10.678181  -0.000000
   53       10.770380  -0.000000
   54       10.869728  -0.000000
   55       10.944608  -0.000000
   56       11.253396  -0.000000
   57       11.295178  -0.000000
   58       11.298370  -0.000000
   59       11.410329  -0.000000
   60       11.418148  -0.000000
   61       12.106139  -0.000000
   62       12.114604  -0.000000
   63       12.154157  -0.000000
   64       13.736072   0.000000

  0.3333333E+00  0.2222222E+00  0.3742002E-15  0.1646091E-01
    1       -4.174713   1.000000
    2       -3.675913   1.000000
    3       -3.190924   1.000000
    4       -2.522651   1.000000
    5       -2.441765   1.000000
    6       -2.332734   1.000000
    7       -1.480101   1.000000
    8       -0.632755   1.000000
    9       -0.585966   1.000000
   10        0.005496   1.000000
   11        1.070276   1.000000
   12        1.516609   1.000000
   13        1.626753   1.000000
   14        1.880960   1.000000
   15        1.885266   1.000000
   16        2.327412   1.000000
   17        2.460573   1.000000
   18        2.502668   1.000000
   19        3.015760   1.000000
   20        3.057548   1.000000
   21        3.226237   1.000000
   22        3.365855   1.000000
   23        3.472084   1.000000
   24        3.620052   1.000000
   25        3.993428   1.000000
   26        4.018216   1.000000
   27        4.244627   1.000000
   28        4.338095   1.000000
   29        4.708999   1.000000
   30        4.865810   1.000000
   31        4.884082   1.000000
   32        4.996721   1.000000
   33        5.220497   1.000000
   34        5.224348   1.000000
   35        5.314920   1.000000
   36        5.484985   1.000000
   37        5.618831   1.000000
   38        5.797378   1.000000
   39        6.262844   1.000000
   40        6.355397   1.000000
   41        8.410479   1.000000
   42        8.511020   1.000000
   43        8.992025   1.000000
   44        9.093923   1.000000
   45        9.303968   1.000000
   46        9.323504   1.000000
   47        9.511713   1.000000
   48        9.731778   1.000000
   49        9.930265   1.006244
   50       10.258195  -0.035397
   51       10.307019  -0.018839
   52       10.388141  -0.001135
   53       10.795957  -0.000000
   54       11.009482  -0.000000
   55       11.158695  -0.000000
   56       11.159397  -0.000000
   57       11.243431  -0.000000
   58       11.277471  -0.000000
   59       11.299891  -0.000000
   60       11.454133  -0.000000
   61       11.511367  -0.000000
   62       11.929970  -0.000000
   63       11.938480  -0.000000
   64       12.916097   0.000000

  0.3333333E+00  0.3333333E+00  0.3742002E-15  0.2743484E-02
    1       -3.727129   1.000000
    2       -3.727125   1.000000
    3       -3.727120   1.000000
    4       -2.442670   1.000000
    5       -2.442666   1.000000
    6       -2.442663   1.000000
    7       -1.071060   1.000000
    8       -1.071056   1.000000
    9       -0.088029   1.000000
   10       -0.088025   1.000000
   11        0.541593   1.000000
   12        2.034549   1.000000
   13        2.034553   1.000000
   14        2.034556   1.000000
   15        2.318195   1.000000
   16        2.318200   1.000000
   17        2.318203   1.000000
   18        2.434246   1.000000
   19        2.434250   1.000000
   20        2.434253   1.000000
   21        3.238640   1.000000
   22        3.726798   1.000000
   23        3.726802   1.000000
   24        3.726805   1.000000
   25        3.820876   1.000000
   26        3.820879   1.000000
   27        3.820882   1.000000
   28        4.561594   1.000000
   29        4.561596   1.000000
   30        5.059461   1.000000
   31        5.059463   1.000000
   32        5.059466   1.000000
   33        5.204294   1.000000
   34        5.204296   1.000000
   35        5.204297   1.000000
   36        5.686358   1.000000
   37        5.686361   1.000000
   38        5.919519   1.000000
   39        5.919521   1.000000
   40        5.919523   1.000000
   41        8.867122   1.000000
   42        8.867126   1.000000
   43        8.867128   1.000000
   44        9.241741   1.000000
   45        9.241743   1.000000
   46        9.625483   1.000000
   47        9.697355   1.000000
   48        9.697357   1.000000
   49        9.697358   1.000000
   50        9.809529   1.000018
   51        9.809534   1.000018
   52        9.809536   1.000018
   53       11.145230  -0.000000
   54       11.145235  -0.000000
   55       11.148404  -0.000000
   56       11.306322  -0.000000
   57       11.306536  -0.000000
   58       11.306537  -0.000000
   59       11.348529  -0.000000
   60       11.348556  -0.000000
   61       11.348557  -0.000000
   62       12.876570   0.000000
   63       12.876573   0.000000
   64       12.877472   0.000000

  0.3742002E-15  0.3742002E-15  0.1111111E+00  0.2743484E-02
    1       -5.256769   1.000000
    2       -2.821757   1.000000
    3       -2.206103   1.000000
    4       -2.206097   1.000000
    5       -2.206094   1.000000
    6       -1.506219   1.000000
    7       -1.506217   1.000000
    8       -1.506213   1.000000
    9       -0.758088   1.000000
   10       -0.758082   1.000000
   11       -0.758080   1.000000
   12        0.526591   1.000000
   13        1.096608   1.000000
   14        1.096611   1.000000
   15        1.096615   1.000000
   16        2.611360   1.000000
   17        2.611361   1.000000
   18        2.611362   1.000000
   19        3.264238   1.000000
   20        3.264239   1.000000
   21        3.264241   1.000000
   22        4.329626   1.000000
   23        4.329630   1.000000
   24        4.329633   1.000000
   25        4.388407   1.000000
   26        4.388408   1.000000
   27        4.388411   1.000000
   28        4.433576   1.000000
   29        4.433580   1.000000
   30        4.500308   1.000000
   31        5.023266   1.000000
   32        5.023268   1.000000
   33        5.023271   1.000000
   34        5.660031   1.000000
   35        5.660036   1.000000
   36        5.660038   1.000000
   37        6.738593   1.000000
   38        6.738597   1.000000
   39        6.991382   1.000000
   40        6.991385   1.000000
   41        7.131833   1.000000
   42        8.357425   1.000000
   43        8.357429   1.000000
   44        9.423703   1.000000
   45        9.423705   1.000000
   46        9.423707   1.000000
   47        9.805889   1.000014
   48        9.805891   1.000014
   49       10.433410  -0.000118
   50       10.956062  -0.000000
   51       10.956079  -0.000000
   52       10.956081  -0.000000
   53       11.262182  -0.000000
   54       11.351358  -0.000000
   55       11.437732  -0.000000
   56       11.498427  -0.000000
   57       11.509145  -0.000000
   58       12.576330  -0.000000
   59       12.934415   0.000000
   60       13.975981   0.000000
   61       13.980223   0.000000
   62       14.189947   0.000000
   63       14.503883   0.000000
   64       14.523952   0.000000

  0.1111111E+00  0.3654210E-15  0.1111111E+00  0.1646091E-01
    1       -5.194496   1.000000
    2       -2.808267   1.000000
    3       -2.236665   1.000000
    4       -2.182107   1.000000
    5       -2.182101   1.000000
    6       -1.950162   1.000000
    7       -1.606346   1.000000
    8       -1.606344   1.000000
    9       -0.581463   1.000000
   10       -0.581458   1.000000
   11       -0.293817   1.000000
   12        0.609346   1.000000
   13        1.001127   1.000000
   14        1.001130   1.000000
   15        1.202188   1.000000
   16        2.669728   1.000000
   17        2.675302   1.000000
   18        2.675304   1.000000
   19        3.260519   1.000000
   20        3.336201   1.000000
   21        3.336203   1.000000
   22        3.956453   1.000000
   23        3.956455   1.000000
   24        4.287034   1.000000
   25        4.368433   1.000000
   26        4.375965   1.000000
   27        4.375969   1.000000
   28        4.445154   1.000000
   29        4.465513   1.000000
   30        4.537063   1.000000
   31        5.022323   1.000000
   32        5.435461   1.000000
   33        5.435462   1.000000
   34        5.546927   1.000000
   35        5.569838   1.000000
   36        5.569842   1.000000
   37        6.071448   1.000000
   38        6.114506   1.000000
   39        6.919673   1.000000
   40        7.223230   1.000000
   41        7.413933   1.000000
   42        8.581281   1.000000
   43        8.713578   1.000000
   44        9.112797   1.000000