   73   73   85    1
  0.2116017E+02  0.1036401E-08  0.2425004E-08  0.6146140E-09  0.5000000E-15
  1.000000000000000E-004
  CAR 
 Name                                    
    277     68    180
 
  0.0000000E+00  0.0000000E+00  0.0000000E+00  0.7407407E-02
    1      -14.121641   1.000000
    2      -13.033536   1.000000
    3      -12.849827   1.000000
    4      -12.840060   1.000000
    5      -12.011126   1.000000
    6      -11.823089   1.000000
    7      -11.695488   1.000000
    8      -11.641307   1.000000
    9      -11.497184   1.000000
   10      -11.313836   1.000000
   11      -11.257233   1.000000
   12      -11.019977   1.000000
   13      -10.981283   1.000000
   14      -10.630925   1.000000
   15      -10.476118   1.000000
   16      -10.347704   1.000000
   17      -10.157086   1.000000
   18      -10.123789   1.000000
   19       -9.738151   1.000000
   20       -9.662390   1.000000
   21       -9.637004   1.000000
   22       -9.552014   1.000000
   23       -9.436210   1.000000
   24       -9.321965   1.000000
   25       -8.902801   1.000000
   26       -8.828179   1.000000
   27       -8.578513   1.000000
   28       -8.455223   1.000000
   29       -8.250972   1.000000
   30       -8.248241   1.000000
   31       -8.160585   1.000000
   32       -7.883305   1.000000
   33       -7.758260   1.000000
   34       -7.403831   1.000000
   35       -7.286676   1.000000
   36       -7.175754   1.000000
   37       -7.090976   1.000000
   38       -6.911010   1.000000
   39       -6.816597   1.000000
   40       -6.747617   1.000000
   41       -6.744510   1.000000
   42       -6.720433   1.000000
   43       -6.601141   1.000000
   44       -6.500705   1.000000
   45       -6.420669   1.000000
   46       -6.304821   1.000000
   47       -6.285224   1.000000
   48       -6.195757   1.000000
   49       -6.119632   1.000000
   50       -5.988930   1.000000
   51       -5.778090   1.000000
   52       -5.746748   1.000000
   53       -5.715202   1.000000
   54       -5.649618   1.000000
   55       -5.625827   1.000000
   56       -5.521010   1.000000
   57       -5.503965   1.000000
   58       -5.388239   1.000000
   59       -5.257738   1.000000
   60       -5.192987   1.000000
   61       -5.055722   1.000000
   62       -4.858227   1.000000
   63       -4.825061   1.000000
   64       -4.735329   1.000000
   65       -4.699804   1.000000
   66       -4.615921   1.000000
   67       -4.554226   1.000000
   68       -4.408476   1.000000
   69       -4.269240   1.000000
   70       -4.248091   1.000000
   71       -4.163861   1.000000
   72       -4.086886   1.000000
   73       -4.057003   1.000000
   74       -4.016522   1.000000
   75       -3.999810   1.000000
   76       -3.941162   1.000000
   77       -3.930970   1.000000
   78       -3.849537   1.000000
   79       -3.823625   1.000000
   80       -3.719909   1.000000
   81       -3.676005   1.000000
   82       -3.646704   1.000000
   83       -3.636313   1.000000
   84       -3.619718   1.000000
   85       -3.534823   1.000000
   86       -3.518927   1.000000
   87       -3.510976   1.000000
   88       -3.500378   1.000000
   89       -3.455880   1.000000
   90       -3.447554   1.000000
   91       -3.361168   1.000000
   92       -3.323715   1.000000
   93       -3.015401   1.000000
   94       -2.982899   1.000000
   95       -2.926714   1.000000
   96       -2.780550   1.000000
   97       -2.744513   1.000000
   98       -2.693966   1.000000
   99       -2.602203   1.000000
  100       -2.526084   1.000000
  101       -2.335549   1.000000
  102       -2.313526   1.000000
  103       -2.304919   1.000000
  104       -2.283341   1.000000
  105       -2.181844   1.000000
  106       -2.118711   1.000000
  107       -2.086210   1.000000
  108       -2.082795   1.000000
  109       -2.064466   1.000000
  110       -2.029334   1.000000
  111       -1.823024   1.000000
  112       -1.799109   1.000000
  113       -1.768057   1.000000
  114       -1.699589   1.000000
  115       -1.629293   1.000000
  116       -1.603122   1.000000
  117       -1.566133   1.000000
  118       -1.515920   1.000000
  119       -1.335112   1.000000
  120       -1.243516   1.000000
  121       -1.182052   1.000000
  122       -0.975101   1.000000
  123       -0.860900   1.000000
  124       -0.743483   1.000000
  125       -0.697076   1.000000
  126       -0.580645   1.000000
  127       -0.472114   1.000000
  128       -0.370220   1.000000
  129       -0.358551   1.000000
  130       -0.280715   1.000000
  131       -0.084377   1.000000
  132       -0.072182   1.000000
  133        0.060483   1.000168
  134        0.179273   1.018314
  135        0.252629   1.021948
  136        0.296029   0.890152
  137        0.343927   0.549691
  138        0.370893   0.325900
  139        0.411151   0.074057
  140        0.432197   0.004094
  141        0.472126  -0.035458
  142        0.478578  -0.034898
  143        0.527235  -0.015441
  144        0.554618  -0.006823
  145        0.556313  -0.006443
  146        0.612155  -0.000655
  147        0.665605  -0.000038
  148        0.723173  -0.000001
  149        0.739431  -0.000000
  150        0.783796  -0.000000
  151        0.896899  -0.000000
  152        0.995866  -0.000000
  153        1.027015  -0.000000
  154        1.035891  -0.000000
  155        1.044207  -0.000000
  156        1.126902  -0.000000
  157        1.166790  -0.000000
  158        1.214918  -0.000000
  159        1.233358  -0.000000
  160        1.272307  -0.000000
  161        1.298521  -0.000000
  162        1.308465  -0.000000
  163        1.336257  -0.000000
  164        1.354711  -0.000000
  165        1.421957  -0.000000
  166        1.498617  -0.000000
  167        1.507728  -0.000000
  168        1.549619  -0.000000
  169        1.587420  -0.000000
  170        1.610662  -0.000000
  171        1.621781  -0.000000
  172        1.643813  -0.000000
  173        1.650890  -0.000000
  174        1.712848  -0.000000
  175        1.753037  -0.000000
  176        1.824445  -0.000000
  177        1.969377  -0.000000
  178        2.019093  -0.000000
  179        2.169642  -0.000000
  180        2.249194  -0.000000
 
  0.2000000E+00  0.2082117E-18  0.3388132E-20  0.1481481E-01
    1      -14.072733   1.000000
    2      -13.362076   1.000000
    3      -12.800356   1.000000
    4      -12.441043   1.000000
    5      -12.130789   1.000000
    6      -11.995989   1.000000
    7      -11.773058   1.000000
    8      -11.390173   1.000000
    9      -11.306717   1.000000
   10      -11.263550   1.000000
   11      -11.213956   1.000000
   12      -11.098792   1.000000
   13      -10.872973   1.000000
   14      -10.722559   1.000000
   15      -10.638044   1.000000
   16      -10.610542   1.000000
   17      -10.500547   1.000000
   18       -9.837515   1.000000
   19       -9.687943   1.000000
   20       -9.619736   1.000000
   21       -9.545438   1.000000
   22       -9.504174   1.000000
   23       -9.419205   1.000000
   24       -9.380680   1.000000
   25       -9.090196   1.000000
   26       -8.820706   1.000000
   27       -8.301435   1.000000
   28       -8.281702   1.000000
   29       -8.215606   1.000000
   30       -8.166174   1.000000
   31       -8.128724   1.000000
   32       -8.056615   1.000000
   33       -7.630560   1.000000
   34       -7.586160   1.000000
   35       -7.305579   1.000000
   36       -7.277088   1.000000
   37       -7.168516   1.000000
   38       -6.999715   1.000000
   39       -6.957084   1.000000
   40       -6.809093   1.000000
   41       -6.726615   1.000000
   42       -6.662402   1.000000
   43       -6.587521   1.000000
   44       -6.508133   1.000000
   45       -6.384827   1.000000
   46       -6.339227   1.000000
   47       -6.276801   1.000000
   48       -6.165452   1.000000
   49       -6.069131   1.000000
   50       -6.047867   1.000000
   51       -5.823730   1.000000
   52       -5.750747   1.000000
   53       -5.641642   1.000000
   54       -5.513032   1.000000
   55       -5.454639   1.000000
   56       -5.407286   1.000000
   57       -5.354205   1.000000
   58       -5.346673   1.000000
   59       -5.304762   1.000000
   60       -5.241009   1.000000
   61       -5.151556   1.000000
   62       -4.954588   1.000000
   63       -4.877408   1.000000
   64       -4.850086   1.000000
   65       -4.676009   1.000000
   66       -4.652184   1.000000
   67       -4.566814   1.000000
   68       -4.443556   1.000000
   69       -4.232101   1.000000
   70       -4.201300   1.000000
   71       -4.155972   1.000000
   72       -4.112296   1.000000
   73       -4.098877   1.000000
   74       -4.019002   1.000000
   75       -3.973120   1.000000
   76       -3.897092   1.000000
   77       -3.873424   1.000000
   78       -3.830953   1.000000
   79       -3.818681   1.000000
   80       -3.780612   1.000000
   81       -3.725753   1.000000
   82       -3.664672   1.000000
   83       -3.633184   1.000000
   84       -3.616508   1.000000
   85       -3.571145   1.000000
   86       -3.526159   1.000000
   87       -3.477905   1.000000
   88       -3.471518   1.000000
   89       -3.465170   1.000000
   90       -3.400805   1.000000
   91       -3.386395   1.000000
   92       -3.306525   1.000000
   93       -3.028941   1.000000
   94       -2.994173   1.000000
   95       -2.963518   1.000000
   96       -2.873926   1.000000
   97       -2.749653   1.000000
   98       -2.702551   1.000000
   99       -2.593649   1.000000
  100       -2.564373   1.000000
  101       -2.400668   1.000000
  102       -2.353014   1.000000
  103       -2.333325   1.000000
  104       -2.241141   1.000000
  105       -2.153314   1.000000
  106       -2.106885   1.000000
  107       -2.033053   1.000000
  108       -2.005594   1.000000
  109       -1.935038   1.000000
  110       -1.893625   1.000000
  111       -1.891552   1.000000
  112       -1.883166   1.000000
  113       -1.712004   1.000000
  114       -1.684682   1.000000
  115       -1.578765   1.000000
  116       -1.514418   1.000000
  117       -1.484443   1.000000
  118       -1.444882   1.000000
  119       -1.387588   1.000000
  120       -1.223688   1.000000
  121       -1.087408   1.000000
  122       -0.986310   1.000000
  123       -0.912854   1.000000
  124       -0.772209   1.000000
  125       -0.713957   1.000000
  126       -0.646195   1.000000
  127       -0.505180   1.000000
  128       -0.449362   1.000000
  129       -0.425035   1.000000
  130       -0.298206   1.000000
  131       -0.253934   1.000000
  132       -0.240496   1.000000
  133       -0.192779   1.000000
  134        0.103891   1.001387
  135        0.176989   1.017335
  136        0.251881   1.022843
  137        0.340815   0.575779
  138        0.379388   0.261414
  139        0.478312  -0.034943
  140        0.507515  -0.024128
  141        0.524071  -0.016731
  142        0.531195  -0.013905
  143        0.556111  -0.006488
  144        0.600042  -0.001146
  145        0.608092  -0.000793
  146        0.643751  -0.000131
  147        0.672314  -0.000025
  148        0.701741  -0.000004
  149        0.748801  -0.000000
  150        0.845357  -0.000000
  151        0.977616  -0.000000
  152        0.992707  -0.000000
  153        1.021209  -0.000000
  154        1.061587  -0.000000
  155        1.129132  -0.000000
  156        1.147144  -0.000000
  157        1.220232  -0.000000
  158        1.239880  -0.000000
  159        1.260425  -0.000000
  160        1.306476  -0.000000
  161        1.355139  -0.000000
  162        1.362496  -0.000000
  163        1.368743  -0.000000
  164        1.407214  -0.000000
  165        1.487234  -0.000000
  166        1.500342  -0.000000
  167        1.527939  -0.000000
  168        1.546465  -0.000000
  169        1.572869  -0.000000
  170        1.617720  -0.000000
  171        1.648957  -0.000000
  172        1.662277  -0.000000
  173        1.683660  -0.000000
  174        1.761957  -0.000000
  175        1.800826  -0.000000
  176        1.871766  -0.000000
  177        1.971211  -0.000000
  178        2.043938  -0.000000
  179        2.111249  -0.000000
  180        2.216948  -0.000000
 
  0.4000000E+00  0.4164234E-18  0.6776264E-20  0.1481481E-01
    1      -13.927285   1.000000
    2      -13.687222   1.000000
    3      -12.665851   1.000000
    4      -12.437819   1.000000
    5      -11.950932   1.000000
    6      -11.887927   1.000000
    7      -11.874587   1.000000
    8      -11.286000   1.000000
    9      -11.277160   1.000000
   10      -11.249781   1.000000
   11      -11.116997   1.000000
   12      -11.098117   1.000000
   13      -10.924276   1.000000
   14      -10.912319   1.000000
   15      -10.733692   1.000000
   16      -10.694636   1.000000
   17      -10.595547   1.000000
   18      -10.132011   1.000000
   19       -9.722462   1.000000
   20       -9.642759   1.000000
   21       -9.502122   1.000000
   22       -9.382641   1.000000
   23       -9.339351   1.000000
   24       -9.251673   1.000000
   25       -9.051464   1.000000
   26       -8.830368   1.000000
   27       -8.366696   1.000000
   28       -8.154250   1.000000
   29       -7.982782   1.000000
   30       -7.917933   1.000000
   31       -7.854619   1.000000
   32       -7.800845   1.000000
   33       -7.777965   1.000000
   34       -7.761435   1.000000
   35       -7.583821   1.000000
   36       -7.507598   1.000000
   37       -7.372108   1.000000
   38       -7.247887   1.000000
   39       -7.150374   1.000000
   40       -6.864111   1.000000
   41       -6.757740   1.000000
   42       -6.615371   1.000000
   43       -6.512158   1.000000
   44       -6.455026   1.000000
   45       -6.406945   1.000000
   46       -6.159355   1.000000
   47       -6.101734   1.000000
   48       -6.072489   1.000000
   49       -5.975017   1.000000
   50       -5.952351   1.000000
   51       -5.860431   1.000000
   52       -5.828401   1.000000
   53       -5.780052   1.000000
   54       -5.644348   1.000000
   55       -5.544451   1.000000
   56       -5.377355   1.000000
   57       -5.282251   1.000000
   58       -5.202788   1.000000
   59       -5.171389   1.000000
   60       -5.164707   1.000000
   61       -5.052608   1.000000
   62       -5.013553   1.000000
   63       -4.981205   1.000000
   64       -4.761134   1.000000
   65       -4.706859   1.000000
   66       -4.617880   1.000000
   67       -4.466572   1.000000
   68       -4.418924   1.000000
   69       -4.353421   1.000000
   70       -4.301889   1.000000
   71       -4.203123   1.000000
   72       -4.148180   1.000000
   73       -4.129206   1.000000
   74       -4.057904   1.000000
   75       -4.045844   1.000000
   76       -3.990238   1.000000
   77       -3.975616   1.000000
   78       -3.913829   1.000000
   79       -3.750881   1.000000
   80       -3.739315   1.000000
   81       -3.686327   1.000000
   82       -3.674301   1.000000
   83       -3.656024   1.000000
   84       -3.633741   1.000000
   85       -3.559499   1.000000
   86       -3.534207   1.000000
   87       -3.516958   1.000000
   88       -3.343026   1.000000
   89       -3.306005   1.000000
   90       -3.281233   1.000000
   91       -3.237367   1.000000
   92       -3.201520   1.000000
   93       -3.127838   1.000000
   94       -3.111032   1.000000
   95       -3.037685   1.000000
   96       -2.948623   1.000000
   97       -2.886403   1.000000
   98       -2.852325   1.000000
   99       -2.754228   1.000000
  100       -2.506316   1.000000
  101       -2.340870   1.000000
  102       -2.279833   1.000000
  103       -2.242396   1.000000
  104       -2.228234   1.000000
  105       -2.159524   1.000000
  106       -2.151879   1.000000
  107       -2.022524   1.000000
  108       -1.998103   1.000000
  109       -1.977767   1.000000
  110       -1.969247   1.000000
  111       -1.752988   1.000000
  112       -1.679722   1.000000
  113       -1.648585   1.000000
  114       -1.584760   1.000000
  115       -1.475653   1.000000
  116       -1.425607   1.000000
  117       -1.359403   1.000000
  118       -1.240808   1.000000
  119       -1.167462   1.000000
  120       -1.147116   1.000000
  121       -1.056345   1.000000
  122       -1.023536   1.000000
  123       -0.970589   1.000000
  124       -0.888494   1.000000
  125       -0.787092   1.000000
  126       -0.776451   1.000000
  127       -0.749540   1.000000
  128       -0.722450   1.000000
  129       -0.643169   1.000000
  130       -0.608239   1.000000
  131       -0.344257   1.000000
  132       -0.261590   1.000000
  133       -0.085544   1.000000
  134       -0.023682   1.000001
  135        0.023491   1.000020
  136        0.268751   0.992707
  137        0.312292   0.794083
  138        0.357209   0.437569
  139        0.440723  -0.012947
  140        0.459597  -0.032529
  141        0.469144  -0.035299
  142        0.492620  -0.030700
  143        0.577081  -0.003008
  144        0.619799  -0.000453
  145        0.624695  -0.000355
  146        0.669445  -0.000030
  147        0.754115  -0.000000
  148        0.817445  -0.000000
  149        0.827923  -0.000000
  150        0.913991  -0.000000
  151        1.081296  -0.000000
  152        1.085049  -0.000000
  153        1.094814  -0.000000
  154        1.170471  -0.000000
  155        1.177649  -0.000000
  156        1.267719  -0.000000
  157        1.288426  -0.000000
  158        1.304176  -0.000000
  159        1.320517  -0.000000
  160        1.369704  -0.000000
  161        1.385321  -0.000000
  162        1.389760  -0.000000
  163        1.429668  -0.000000
  164        1.474326  -0.000000
  165        1.517523  -0.000000
  166        1.548077  -0.000000
  167        1.584070  -0.000000
  168        1.595321  -0.000000
  169        1.635774  -0.000000
  170        1.650637  -0.000000
  171        1.702786  -0.000000
  172        1.707946  -0.000000
  173        1.730309  -0.000000
  174        1.742407  -0.000000
  175        1.792358  -0.000000
  176        1.870492  -0.000000
  177        1.883953  -0.000000
  178        1.942382  -0.000000
  179        2.048773  -0.000000
  180        2.188804  -0.000000
 
  0.2065562E-19  0.3333333E+00 -0.5293956E-22  0.1481481E-01
    1      -14.121642   1.000000
    2      -13.033536   1.000000
    3      -12.849826   1.000000
    4      -12.840060   1.000000
    5      -12.011126   1.000000
    6      -11.823089   1.000000
    7      -11.695490   1.000000
    8      -11.641307   1.000000
    9      -11.497185   1.000000
   10      -11.313836   1.000000
   11      -11.257232   1.000000
   12      -11.019980   1.000000
   13      -10.981286   1.000000
   14      -10.630924   1.000000
   15      -10.476116   1.000000
   16      -10.347703   1.000000
   17      -10.157085   1.000000
   18      -10.123789   1.000000
   19       -9.738148   1.000000
   20       -9.662392   1.000000
   21       -9.637008   1.000000
   22       -9.552017   1.000000
   23       -9.436209   1.000000
   24       -9.321965   1.000000
   25       -8.902798   1.000000
   26       -8.828178   1.000000
   27       -8.578511   1.000000
   28       -8.455222   1.000000
   29       -8.250978   1.000000
   30       -8.248243   1.000000
   31       -8.160588   1.000000
   32       -7.883298   1.000000
   33       -7.758256   1.000000
   34       -7.403837   1.000000
   35       -7.286685   1.000000
   36       -7.175753   1.000000
   37       -7.090970   1.000000
   38       -6.911009   1.000000
   39       -6.816597   1.000000
   40       -6.747617   1.000000
   41       -6.744510   1.000000
   42       -6.720436   1.000000
   43       -6.601135   1.000000
   44       -6.500701   1.000000
   45       -6.420671   1.000000
   46       -6.304823   1.000000
   47       -6.285228   1.000000
   48       -6.195757   1.000000
   49       -6.119636   1.000000
   50       -5.988928   1.000000
   51       -5.778087   1.000000
   52       -5.746747   1.000000
   53       -5.715204   1.000000
   54       -5.649621   1.000000
   55       -5.625825   1.000000
   56       -5.521010   1.000000
   57       -5.503964   1.000000
   58       -5.388236   1.000000
   59       -5.257735   1.000000
   60       -5.192981   1.000000
   61       -5.055718   1.000000
   62       -4.858228   1.000000
   63       -4.825061   1.000000
   64       -4.735332   1.000000
   65       -4.699797   1.000000
   66       -4.615924   1.000000
   67       -4.554234   1.000000
   68       -4.408469   1.000000
   69       -4.269244   1.000000
   70       -4.248092   1.000000
   71       -4.163861   1.000000
   72       -4.086886   1.000000
   73       -4.057001   1.000000
   74       -4.016521   1.000000
   75       -3.999807   1.000000
   76       -3.941161   1.000000
   77       -3.930970   1.000000
   78       -3.849533   1.000000
   79       -3.823625   1.000000
   80       -3.719904   1.000000
   81       -3.676001   1.000000
   82       -3.646706   1.000000
   83       -3.636312   1.000000
   84       -3.619715   1.000000
   85       -3.534824   1.000000
   86       -3.518923   1.000000
   87       -3.510976   1.000000
   88       -3.500376   1.000000
   89       -3.455881   1.000000
   90       -3.447554   1.000000
   91       -3.361167   1.000000
   92       -3.323710   1.000000
   93       -3.015405   1.000000
   94       -2.982902   1.000000
   95       -2.926712   1.000000
   96       -2.780550   1.000000
   97       -2.744512   1.000000
   98       -2.693967   1.000000
   99       -2.602202   1.000000
  100       -2.526081   1.000000
  101       -2.335550   1.000000
  102       -2.313530   1.000000
  103       -2.304921   1.000000
  104       -2.283342   1.000000
  105       -2.181838   1.000000
  106       -2.118706   1.000000
  107       -2.086208   1.000000
  108       -2.082794   1.000000
  109       -2.064464   1.000000
  110       -2.029329   1.000000
  111       -1.823023   1.000000
  112       -1.799110   1.000000
  113       -1.768058   1.000000
  114       -1.699585   1.000000
  115       -1.629291   1.000000
  116       -1.603125   1.000000
  117       -1.566132   1.000000
  118       -1.515917   1.000000
  119       -1.335111   1.000000
  120       -1.243509   1.000000
  121       -1.182048   1.000000
  122       -0.975103   1.000000
  123       -0.860899   1.000000
  124       -0.743483   1.000000
  125       -0.697080   1.000000
  126       -0.580642   1.000000
  127       -0.472116   1.000000
  128       -0.370218   1.000000
  129       -0.358549   1.000000
  130       -0.280707   1.000000
  131       -0.084380   1.000000
  132       -0.072185   1.000000
  133        0.060486   1.000168
  134        0.179270   1.018313
  135        0.252627   1.021952
  136        0.296032   0.890138
  137        0.343926   0.549701
  138        0.370895   0.325887
  139        0.411153   0.074048
  140        0.432200   0.004087
  141        0.472127  -0.035458
  142        0.478593  -0.034896
  143        0.527239  -0.015439
  144        0.554620  -0.006823
  145        0.556314  -0.006443
  146        0.612155  -0.000655
  147        0.665604  -0.000038
  148        0.723175  -0.000001
  149        0.739433  -0.000000
  150        0.783793  -0.000000
  151        0.896913  -0.000000
  152        0.995852  -0.000000
  153        1.027001  -0.000000
  154        1.035849  -0.000000
  155        1.044156  -0.000000
  156        1.126880  -0.000000
  157        1.166830  -0.000000
  158        1.214891  -0.000000
  159        1.233280  -0.000000
  160        1.272488  -0.000000
  161        1.298625  -0.000000
  162        1.308473  -0.000000
  163        1.336243  -0.000000
  164        1.354442  -0.000000
  165        1.423090  -0.000000
  166        1.499629  -0.000000
  167        1.512768  -0.000000
  168        1.550168  -0.000000
  169        1.582763  -0.000000
  170        1.607759  -0.000000
  171        1.628671  -0.000000
  172        1.639815  -0.000000
  173        1.654252  -0.000000
  174        1.676328  -0.000000
  175        1.737380  -0.000000
  176        1.823157  -0.000000
  177        1.920022  -0.000000
  178        2.009449  -0.000000
  179        2.207377  -0.000000
  180        2.287002  -0.000000
 
  0.2000000E+00  0.3333333E+00  0.6776264E-20  0.1481481E-01
    1      -14.072735   1.000000
    2      -13.362076   1.000000
    3      -12.800356   1.000000
    4      -12.441043   1.000000
    5      -12.130787   1.000000
    6      -11.995988   1.000000
    7      -11.773058   1.000000
    8      -11.390174   1.000000
    9      -11.306715   1.000000
   10      -11.263549   1.000000
   11      -11.213956   1.000000
   12      -11.098793   1.000000
   13      -10.872973   1.000000
   14      -10.722559   1.000000
   15      -10.638044   1.000000
   16      -10.610541   1.000000
   17      -10.500546   1.000000
   18       -9.837514   1.000000
   19       -9.687943   1.000000
   20       -9.619737   1.000000
   21       -9.545439   1.000000
   22       -9.504174   1.000000
   23       -9.419204   1.000000
   24       -9.380678   1.000000
   25       -9.090196   1.000000
   26       -8.820702   1.000000
   27       -8.301430   1.000000
   28       -8.281702   1.000000
   29       -8.215604   1.000000
   30       -8.166173   1.000000
   31       -8.128720   1.000000
   32       -8.056613   1.000000
   33       -7.630562   1.000000
   34       -7.586164   1.000000
   35       -7.305575   1.000000
   36       -7.277092   1.000000
   37       -7.168514   1.000000
   38       -6.999713   1.000000
   39       -6.957084   1.000000
   40       -6.809091   1.000000
   41       -6.726613   1.000000
   42       -6.662400   1.000000
   43       -6.587520   1.000000
   44       -6.508131   1.000000
   45       -6.384826   1.000000
   46       -6.339226   1.000000
   47       -6.276799   1.000000
   48       -6.165448   1.000000
   49       -6.069130   1.000000
   50       -6.047866   1.000000
   51       -5.823733   1.000000
   52       -5.750744   1.000000
   53       -5.641635   1.000000
   54       -5.513029   1.000000
   55       -5.454640   1.000000
   56       -5.407289   1.000000
   57       -5.354206   1.000000
   58       -5.346672   1.000000
   59       -5.304761   1.000000
   60       -5.241009   1.000000
   61       -5.151556   1.000000
   62       -4.954589   1.000000
   63       -4.877408   1.000000
   64       -4.850085   1.000000
   65       -4.676007   1.000000
   66       -4.652182   1.000000
   67       -4.566816   1.000000
   68       -4.443553   1.000000
   69       -4.232093   1.000000
   70       -4.201299   1.000000
   71       -4.155970   1.000000
   72       -4.112299   1.000000
   73       -4.098874   1.000000
   74       -4.019002   1.000000
   75       -3.973124   1.000000
   76       -3.897095   1.000000
   77       -3.873423   1.000000
   78       -3.830953   1.000000
   79       -3.818681   1.000000
   80       -3.780609   1.000000
   81       -3.725753   1.000000
   82       -3.664674   1.000000
   83       -3.633185   1.000000
   84       -3.616508   1.000000
   85       -3.571146   1.000000
   86       -3.526158   1.000000
   87       -3.477904   1.000000
   88       -3.471518   1.000000
   89       -3.465170   1.000000
   90       -3.400805   1.000000
   91       -3.386396   1.000000
   92       -3.306524   1.000000
   93       -3.028943   1.000000
   94       -2.994173   1.000000
   95       -2.963521   1.000000
   96       -2.873924   1.000000
   97       -2.749650   1.000000
   98       -2.702551   1.000000
   99       -2.593651   1.000000
  100       -2.564373   1.000000
  101       -2.400665   1.000000
  102       -2.353014   1.000000
  103       -2.333326   1.000000
  104       -2.241142   1.000000
  105       -2.153315   1.000000
  106       -2.106880   1.000000
  107       -2.033055   1.000000
  108       -2.005596   1.000000
  109       -1.935038   1.000000
  110       -1.893626   1.000000
  111       -1.891553   1.000000
  112       -1.883166   1.000000
  113       -1.712004   1.000000
  114       -1.684680   1.000000
  115       -1.578765   1.000000
  116       -1.514416   1.000000
  117       -1.484441   1.000000
  118       -1.444882   1.000000
  119       -1.387588   1.000000
  120       -1.223687   1.000000
  121       -1.087407   1.000000
  122       -0.986309   1.000000
  123       -0.912853   1.000000
  124       -0.772207   1.000000
  125       -0.713956   1.000000
  126       -0.646196   1.000000
  127       -0.505178   1.000000
  128       -0.449363   1.000000
  129       -0.425036   1.000000
  130       -0.298203   1.000000
  131       -0.253929   1.000000
  132       -0.240496   1.000000
  133       -0.192781   1.000000
  134        0.103890   1.001387
  135        0.176988   1.017335
  136        0.251880   1.022844
  137        0.340817   0.575767
  138        0.379388   0.261413
  139        0.478313  -0.034942
  140        0.507518  -0.024127
  141        0.524072  -0.016730
  142        0.531196  -0.013904
  143        0.556112  -0.006487
  144        0.600042  -0.001146
  145        0.608093  -0.000793
  146        0.643754  -0.000131
  147        0.672318  -0.000025
  148        0.701744  -0.000004
  149        0.748802  -0.000000
  150        0.845370  -0.000000
  151        0.977612  -0.000000
  152        0.992670  -0.000000
  153        1.021212  -0.000000
  154        1.061576  -0.000000
  155        1.129151  -0.000000
  156        1.147110  -0.000000
  157        1.220085  -0.000000
  158        1.240360  -0.000000
  159        1.260531  -0.000000
  160        1.306514  -0.000000
  161        1.355162  -0.000000
  162        1.361813  -0.000000
  163        1.369570  -0.000000
  164        1.407214  -0.000000
  165        1.486804  -0.000000
  166        1.498859  -0.000000
  167        1.525699  -0.000000
  168        1.541828  -0.000000
  169        1.576677  -0.000000
  170        1.620617  -0.000000
  171        1.641271  -0.000000
  172        1.654375  -0.000000
  173        1.694070  -0.000000