   73   73   85    1
  0.2115814E+02  0.1036705E-08  0.2428040E-08  0.6136055E-09  0.5000000E-15
   1.0000000000000000E-004
  CAR 
 Name                                    
    277     23    180

  0.3742002E-15  0.1262379E-14  0.3742002E-15  0.2222222E-01
    1      -14.102507   1.000000
    2      -12.940933   1.000000
    3      -12.914088   1.000000
    4      -12.876878   1.000000
    5      -11.971804   1.000000
    6      -11.825845   1.000000
    7      -11.745111   1.000000
    8      -11.555571   1.000000
    9      -11.544892   1.000000
   10      -11.384939   1.000000
   11      -11.316875   1.000000
   12      -11.071361   1.000000
   13      -11.048318   1.000000
   14      -10.682045   1.000000
   15      -10.572362   1.000000
   16      -10.427471   1.000000
   17      -10.251000   1.000000
   18      -10.166228   1.000000
   19      -10.049938   1.000000
   20       -9.682274   1.000000
   21       -9.610786   1.000000
   22       -9.592573   1.000000
   23       -9.496582   1.000000
   24       -9.394560   1.000000
   25       -9.060248   1.000000
   26       -8.892686   1.000000
   27       -8.748488   1.000000
   28       -8.516609   1.000000
   29       -8.324783   1.000000
   30       -8.247481   1.000000
   31       -8.242410   1.000000
   32       -7.921247   1.000000
   33       -7.844286   1.000000
   34       -7.536413   1.000000
   35       -7.300126   1.000000
   36       -7.267080   1.000000
   37       -7.105714   1.000000
   38       -6.984447   1.000000
   39       -6.860973   1.000000
   40       -6.817781   1.000000
   41       -6.799411   1.000000
   42       -6.786036   1.000000
   43       -6.536759   1.000000
   44       -6.501722   1.000000
   45       -6.393011   1.000000
   46       -6.373823   1.000000
   47       -6.248258   1.000000
   48       -6.230067   1.000000
   49       -6.210819   1.000000
   50       -6.005530   1.000000
   51       -5.904045   1.000000
   52       -5.870082   1.000000
   53       -5.746844   1.000000
   54       -5.730110   1.000000
   55       -5.721585   1.000000
   56       -5.590006   1.000000
   57       -5.544934   1.000000
   58       -5.464539   1.000000
   59       -5.317456   1.000000
   60       -5.274352   1.000000
   61       -5.202392   1.000000
   62       -4.821373   1.000000
   63       -4.802385   1.000000
   64       -4.769800   1.000000
   65       -4.654284   1.000000
   66       -4.645143   1.000000
   67       -4.573820   1.000000
   68       -4.532776   1.000000
   69       -4.244470   1.000000
   70       -4.175305   1.000000
   71       -4.144963   1.000000
   72       -4.133950   1.000000
   73       -4.053610   1.000000
   74       -4.049545   1.000000
   75       -4.039022   1.000000
   76       -4.003234   1.000000
   77       -3.980541   1.000000
   78       -3.938089   1.000000
   79       -3.815726   1.000000
   80       -3.699572   1.000000
   81       -3.696008   1.000000
   82       -3.684222   1.000000
   83       -3.670469   1.000000
   84       -3.614619   1.000000
   85       -3.604332   1.000000
   86       -3.599533   1.000000
   87       -3.598238   1.000000
   88       -3.582730   1.000000
   89       -3.558085   1.000000
   90       -3.502026   1.000000
   91       -3.378053   1.000000
   92       -3.202921   1.000000
   93       -3.030596   1.000000
   94       -3.022782   1.000000
   95       -3.000301   1.000000
   96       -2.934614   1.000000
   97       -2.822339   1.000000
   98       -2.821228   1.000000
   99       -2.686788   1.000000
  100       -2.529484   1.000000
  101       -2.415856   1.000000
  102       -2.401196   1.000000
  103       -2.355993   1.000000
  104       -2.343480   1.000000
  105       -2.147999   1.000000
  106       -2.141263   1.000000
  107       -2.112362   1.000000
  108       -2.100428   1.000000
  109       -2.059294   1.000000
  110       -2.003782   1.000000
  111       -1.973725   1.000000
  112       -1.888895   1.000000
  113       -1.858331   1.000000
  114       -1.736653   1.000000
  115       -1.704096   1.000000
  116       -1.664033   1.000000
  117       -1.655769   1.000000
  118       -1.649386   1.000000
  119       -1.516992   1.000000
  120       -1.458606   1.000000
  121       -1.247188   1.000000
  122       -1.028061   1.000000
  123       -0.950699   1.000000
  124       -0.922349   1.000000
  125       -0.724113   1.000000
  126       -0.718789   1.000000
  127       -0.581661   1.000000
  128       -0.541338   1.000000
  129       -0.459444   1.000000
  130       -0.413096   1.000000
  131       -0.158371   1.000000
  132       -0.146395   1.000000
  133       -0.020899   1.000283
  134        0.165208   1.016637
  135        0.192291   0.945790
  136        0.204692   0.890099
  137        0.280906   0.315273
  138        0.340716   0.004411
  139        0.368998  -0.032889
  140        0.378715  -0.035379
  141        0.455900  -0.008677
  142        0.505530  -0.001319
  143        0.517009  -0.000784
  144        0.526491  -0.000498
  145        0.530878  -0.000402
  146        0.531612  -0.000387
  147        0.577301  -0.000031
  148        0.592847  -0.000012
  149        0.751609  -0.000000
  150        0.765365  -0.000000
  151        0.929340  -0.000000
  152        0.980711  -0.000000
  153        1.013215  -0.000000
  154        1.073391  -0.000000
  155        1.103156  -0.000000
  156        1.143766  -0.000000
  157        1.155836  -0.000000
  158        1.240994  -0.000000
  159        1.256136  -0.000000
  160        1.280932  -0.000000
  161        1.292942  -0.000000
  162        1.308707  -0.000000
  163        1.322414  -0.000000
  164        1.323322  -0.000000
  165        1.427730  -0.000000
  166        1.511654  -0.000000
  167        1.533242  -0.000000
  168        1.548249  -0.000000
  169        1.575467  -0.000000
  170        1.586425  -0.000000
  171        1.588567  -0.000000
  172        1.605243  -0.000000
  173        1.653706  -0.000000
  174        1.680748  -0.000000
  175        1.692195  -0.000000
  176        1.706439  -0.000000
  177        1.708765  -0.000000
  178        1.844793  -0.000000
  179        1.855578  -0.000000
  180        1.931904  -0.000000

  0.2000000E+00  0.1262379E-14  0.3742002E-15  0.4444444E-01
    1      -14.053334   1.000000
    2      -13.335520   1.000000
    3      -12.843417   1.000000
    4      -12.433175   1.000000
    5      -12.169945   1.000000
    6      -11.954608   1.000000
    7      -11.704956   1.000000
    8      -11.426878   1.000000
    9      -11.360737   1.000000
   10      -11.322585   1.000000
   11      -11.248168   1.000000
   12      -11.157423   1.000000
   13      -10.933117   1.000000
   14      -10.761707   1.000000
   15      -10.666830   1.000000
   16      -10.629751   1.000000
   17      -10.561892   1.000000
   18      -10.259525   1.000000
   19       -9.803082   1.000000
   20       -9.632909   1.000000
   21       -9.592731   1.000000
   22       -9.541646   1.000000
   23       -9.467539   1.000000
   24       -9.398365   1.000000
   25       -9.182248   1.000000
   26       -8.938776   1.000000
   27       -8.566488   1.000000
   28       -8.282582   1.000000
   29       -8.240813   1.000000
   30       -8.212462   1.000000
   31       -8.157402   1.000000
   32       -8.132533   1.000000
   33       -7.767939   1.000000
   34       -7.547779   1.000000
   35       -7.452800   1.000000
   36       -7.324799   1.000000
   37       -7.257021   1.000000
   38       -7.050588   1.000000
   39       -6.973466   1.000000
   40       -6.793843   1.000000
   41       -6.757657   1.000000
   42       -6.702255   1.000000
   43       -6.544719   1.000000
   44       -6.529829   1.000000
   45       -6.490577   1.000000
   46       -6.400891   1.000000
   47       -6.283244   1.000000
   48       -6.179480   1.000000
   49       -6.123984   1.000000
   50       -6.104462   1.000000
   51       -5.977210   1.000000
   52       -5.789833   1.000000
   53       -5.744765   1.000000
   54       -5.608314   1.000000
   55       -5.464379   1.000000
   56       -5.451261   1.000000
   57       -5.393149   1.000000
   58       -5.372074   1.000000
   59       -5.331833   1.000000
   60       -5.312184   1.000000
   61       -5.295077   1.000000
   62       -5.050591   1.000000
   63       -4.913105   1.000000
   64       -4.794001   1.000000
   65       -4.673451   1.000000
   66       -4.598089   1.000000
   67       -4.592183   1.000000
   68       -4.510046   1.000000
   69       -4.220293   1.000000
   70       -4.214174   1.000000
   71       -4.203059   1.000000
   72       -4.141838   1.000000
   73       -4.128640   1.000000
   74       -4.075226   1.000000
   75       -3.981881   1.000000
   76       -3.955909   1.000000
   77       -3.919038   1.000000
   78       -3.872151   1.000000
   79       -3.813783   1.000000
   80       -3.765612   1.000000
   81       -3.727374   1.000000
   82       -3.709433   1.000000
   83       -3.689808   1.000000
   84       -3.662360   1.000000
   85       -3.633891   1.000000
   86       -3.572829   1.000000
   87       -3.562344   1.000000
   88       -3.553718   1.000000
   89       -3.539919   1.000000
   90       -3.443956   1.000000
   91       -3.396185   1.000000
   92       -3.223776   1.000000
   93       -3.104281   1.000000
   94       -3.063955   1.000000
   95       -3.001802   1.000000
   96       -2.910508   1.000000
   97       -2.833391   1.000000
   98       -2.796118   1.000000
   99       -2.715682   1.000000
  100       -2.584427   1.000000
  101       -2.436438   1.000000
  102       -2.427131   1.000000
  103       -2.325635   1.000000
  104       -2.274297   1.000000
  105       -2.174336   1.000000
  106       -2.087768   1.000000
  107       -2.077610   1.000000
  108       -2.052805   1.000000
  109       -2.031391   1.000000
  110       -2.010522   1.000000
  111       -1.956190   1.000000
  112       -1.941111   1.000000
  113       -1.795209   1.000000
  114       -1.734288   1.000000
  115       -1.666070   1.000000
  116       -1.591372   1.000000
  117       -1.538517   1.000000
  118       -1.526208   1.000000
  119       -1.500702   1.000000
  120       -1.405440   1.000000
  121       -1.211761   1.000000
  122       -1.063781   1.000000
  123       -1.011455   1.000000
  124       -0.945544   1.000000
  125       -0.840803   1.000000
  126       -0.726518   1.000000
  127       -0.655190   1.000000
  128       -0.544044   1.000000
  129       -0.498270   1.000000
  130       -0.470856   1.000000
  131       -0.328483   1.000000
  132       -0.285218   1.000000
  133       -0.182643   1.000000
  134        0.041283   1.004415
  135        0.050941   1.006223
  136        0.157136   1.026450
  137        0.249754   0.573394
  138        0.349700  -0.013481
  139        0.352116  -0.017225
  140        0.436677  -0.015127
  141        0.479063  -0.003887
  142        0.520603  -0.000662
  143        0.554905  -0.000114
  144        0.560271  -0.000084
  145        0.604162  -0.000006
  146        0.615838  -0.000003
  147        0.659269  -0.000000
  148        0.699065  -0.000000
  149        0.733837  -0.000000
  150        0.778587  -0.000000
  151        1.011224  -0.000000
  152        1.035244  -0.000000
  153        1.074983  -0.000000
  154        1.087721  -0.000000
  155        1.137758  -0.000000
  156        1.161839  -0.000000
  157        1.229590  -0.000000
  158        1.239544  -0.000000
  159        1.259007  -0.000000
  160        1.271490  -0.000000
  161        1.337872  -0.000000
  162        1.354704  -0.000000
  163        1.364636  -0.000000
  164        1.379979  -0.000000
  165        1.423857  -0.000000
  166        1.506022  -0.000000
  167        1.519479  -0.000000
  168        1.527988  -0.000000
  169        1.573719  -0.000000
  170        1.586342  -0.000000
  171        1.591037  -0.000000
  172        1.640325  -0.000000
  173        1.659817  -0.000000
  174        1.705159  -0.000000
  175        1.719128  -0.000000
  176        1.763278  -0.000000
  177        1.776098  -0.000000
  178        1.879245  -0.000000
  179        1.922572  -0.000000
  180        1.930297  -0.000000

  0.4000000E+00  0.1262379E-14  0.3742002E-15  0.4444444E-01
    1      -13.906990   1.000000
    2      -13.665399   1.000000
    3      -12.709740   1.000000
    4      -12.475037   1.000000
    5      -11.907054   1.000000
    6      -11.880892   1.000000
    7      -11.822744   1.000000
    8      -11.362227   1.000000
    9      -11.287913   1.000000
   10      -11.265697   1.000000
   11      -11.209670   1.000000
   12      -11.106341   1.000000
   13      -10.962459   1.000000
   14      -10.878220   1.000000
   15      -10.791525   1.000000
   16      -10.762965   1.000000
   17      -10.663197   1.000000
   18      -10.340397   1.000000
   19      -10.089895   1.000000
   20       -9.659901   1.000000
   21       -9.569080   1.000000
   22       -9.409996   1.000000
   23       -9.359067   1.000000
   24       -9.319379   1.000000
   25       -9.160393   1.000000
   26       -8.883549   1.000000
   27       -8.483194   1.000000
   28       -8.324797   1.000000
   29       -8.118521   1.000000
   30       -7.949676   1.000000
   31       -7.878343   1.000000
   32       -7.844768   1.000000
   33       -7.837272   1.000000
   34       -7.814808   1.000000
   35       -7.610607   1.000000
   36       -7.537499   1.000000
   37       -7.388358   1.000000
   38       -7.336291   1.000000
   39       -7.156639   1.000000
   40       -6.956229   1.000000
   41       -6.779454   1.000000
   42       -6.573470   1.000000
   43       -6.547253   1.000000
   44       -6.516758   1.000000
   45       -6.462871   1.000000
   46       -6.404604   1.000000
   47       -6.155551   1.000000
   48       -6.083413   1.000000
   49       -5.969384   1.000000
   50       -5.947409   1.000000
   51       -5.918199   1.000000
   52       -5.837043   1.000000
   53       -5.813190   1.000000
   54       -5.738585   1.000000
   55       -5.572390   1.000000
   56       -5.518265   1.000000
   57       -5.360694   1.000000
   58       -5.249939   1.000000
   59       -5.207102   1.000000
   60       -5.173875   1.000000
   61       -5.111853   1.000000
   62       -5.042231   1.000000
   63       -4.936124   1.000000
   64       -4.798546   1.000000
   65       -4.761391   1.000000
   66       -4.662140   1.000000
   67       -4.497561   1.000000
   68       -4.445513   1.000000
   69       -4.378228   1.000000
   70       -4.333352   1.000000
   71       -4.235404   1.000000
   72       -4.205225   1.000000
   73       -4.147444   1.000000
   74       -4.094040   1.000000
   75       -4.090858   1.000000
   76       -4.038879   1.000000
   77       -3.921160   1.000000
   78       -3.867165   1.000000
   79       -3.803963   1.000000
   80       -3.794273   1.000000
   81       -3.791678   1.000000
   82       -3.762086   1.000000
   83       -3.688850   1.000000
   84       -3.654718   1.000000
   85       -3.572633   1.000000
   86       -3.544608   1.000000
   87       -3.514681   1.000000
   88       -3.419132   1.000000
   89       -3.382972   1.000000
   90       -3.373426   1.000000
   91       -3.312470   1.000000
   92       -3.279330   1.000000
   93       -3.190818   1.000000
   94       -3.140584   1.000000
   95       -3.040479   1.000000
   96       -3.033834   1.000000
   97       -2.921747   1.000000
   98       -2.786313   1.000000
   99       -2.737024   1.000000
  100       -2.590581   1.000000
  101       -2.435927   1.000000
  102       -2.334589   1.000000
  103       -2.286013   1.000000
  104       -2.263389   1.000000
  105       -2.237549   1.000000
  106       -2.158697   1.000000
  107       -2.110819   1.000000
  108       -2.074749   1.000000
  109       -2.045955   1.000000
  110       -2.030032   1.000000
  111       -1.788649   1.000000
  112       -1.714763   1.000000
  113       -1.668403   1.000000
  114       -1.636014   1.000000
  115       -1.586223   1.000000
  116       -1.519856   1.000000
  117       -1.438730   1.000000
  118       -1.350338   1.000000
  119       -1.276113   1.000000
  120       -1.198275   1.000000
  121       -1.169139   1.000000
  122       -1.144111   1.000000
  123       -1.124046   1.000000
  124       -1.058102   1.000000
  125       -1.026982   1.000000
  126       -0.838783   1.000000
  127       -0.774577   1.000000
  128       -0.750576   1.000000
  129       -0.701159   1.000000
  130       -0.653712   1.000000
  131       -0.488638   1.000000
  132       -0.451667   1.000000
  133       -0.184334   1.000000
  134       -0.157444   1.000000
  135       -0.014503   1.000391
  136        0.226205   0.757882
  137        0.239345   0.658557
  138        0.254167   0.536317
  139        0.366926  -0.031827
  140        0.388348  -0.034694
  141        0.462746  -0.006944
  142        0.480908  -0.003625
  143        0.542945  -0.000217
  144        0.579210  -0.000028
  145        0.616065  -0.000003
  146        0.627403  -0.000001
  147        0.746042  -0.000000
  148        0.820318  -0.000000
  149        0.886962  -0.000000
  150        0.894903  -0.000000
  151        1.032119  -0.000000
  152        1.082251  -0.000000
  153        1.133220  -0.000000
  154        1.145039  -0.000000
  155        1.177623  -0.000000
  156        1.211438  -0.000000
  157        1.313044  -0.000000
  158        1.343472  -0.000000
  159        1.367437  -0.000000
  160        1.377805  -0.000000
  161        1.387549  -0.000000
  162        1.390936  -0.000000
  163        1.414754  -0.000000
  164        1.452385  -0.000000
  165        1.504506  -0.000000
  166        1.520746  -0.000000
  167        1.540903  -0.000000
  168        1.556565  -0.000000
  169        1.603787  -0.000000
  170        1.628242  -0.000000
  171        1.655481  -0.000000
  172        1.686771  -0.000000
  173        1.704179  -0.000000
  174        1.723184  -0.000000
  175        1.728685  -0.000000
  176        1.754386  -0.000000
  177        1.811973  -0.000000
  178        1.841283  -0.000000
  179        1.896618  -0.000000
  180        1.937702  -0.000000

  0.3742002E-15  0.1262379E-14  0.1111111E+00  0.4444444E-01
    1      -14.057174   1.000000
    2      -12.905644   1.000000
    3      -12.879481   1.000000
    4      -12.839558   1.000000
    5      -12.076912   1.000000
    6      -11.798900   1.000000
    7      -11.716956   1.000000
    8      -11.600950   1.000000
    9      -11.591018   1.000000
   10      -11.437947   1.000000
   11      -11.296811   1.000000
   12      -11.081300   1.000000
   13      -11.060003   1.000000
   14      -10.692552   1.000000
   15      -10.548561   1.000000
   16      -10.434345   1.000000
   17      -10.230011   1.000000
   18      -10.127481   1.000000
   19      -10.040076   1.000000
   20       -9.713275   1.000000
   21       -9.619753   1.000000
   22       -9.591294   1.000000
   23       -9.505685   1.000000
   24       -9.394644   1.000000
   25       -9.043248   1.000000
   26       -8.922199   1.000000
   27       -8.734268   1.000000
   28       -8.510935   1.000000
   29       -8.350580   1.000000
   30       -8.221611   1.000000
   31       -8.096312   1.000000
   32       -7.987704   1.000000
   33       -7.856088   1.000000
   34       -7.577385   1.000000
   35       -7.404727   1.000000
   36       -7.335909   1.000000
   37       -7.079370   1.000000
   38       -6.970129   1.000000
   39       -6.848621   1.000000
   40       -6.753538   1.000000
   41       -6.737818   1.000000
   42       -6.707876   1.000000
   43       -6.521039   1.000000
   44       -6.491798   1.000000
   45       -6.415509   1.000000
   46       -6.379715   1.000000
   47       -6.261271   1.000000
   48       -6.259489   1.000000
   49       -6.250214   1.000000
   50       -6.035891   1.000000
   51       -5.838220   1.000000
   52       -5.817877   1.000000
   53       -5.755595   1.000000
   54       -5.742850   1.000000
   55       -5.705866   1.000000
   56       -5.508847   1.000000
   57       -5.493054   1.000000
   58       -5.401386   1.000000
   59       -5.335526   1.000000
   60       -5.253130   1.000000
   61       -5.159488   1.000000
   62       -4.775693   1.000000
   63       -4.765012   1.000000
   64       -4.744688   1.000000
   65       -4.644120   1.000000
   66       -4.637663   1.000000
   67       -4.546587   1.000000
   68       -4.530571   1.000000
   69       -4.226960   1.000000
   70       -4.194279   1.000000
   71       -4.186097   1.000000
   72       -4.131814   1.000000
   73       -4.110371   1.000000
   74       -4.069929   1.000000
   75       -4.050621   1.000000
   76       -4.034146   1.000000
   77       -4.030652   1.000000
   78       -3.938043   1.000000
   79       -3.915432   1.000000
   80       -3.868663   1.000000
   81       -3.828791   1.000000
   82       -3.781210   1.000000
   83       -3.748464   1.000000
   84       -3.671976   1.000000
   85       -3.648116   1.000000
   86       -3.632587   1.000000
   87       -3.591988   1.000000
   88       -3.580375   1.000000
   89       -3.539969   1.000000
   90       -3.476793   1.000000
   91       -3.381749   1.000000
   92       -3.166728   1.000000
   93       -3.025487   1.000000
   94       -3.004974   1.000000
   95       -2.976275   1.000000
   96       -2.852375   1.000000
   97       -2.820765   1.000000
   98       -2.711396   1.000000
   99       -2.613141   1.000000
  100       -2.556831   1.000000
  101       -2.507250   1.000000
  102       -2.488606   1.000000
  103       -2.323704   1.000000
  104       -2.309823   1.000000
  105       -2.250361   1.000000
  106       -2.163349   1.000000
  107       -2.101595   1.000000
  108       -2.087815   1.000000
  109       -2.053997   1.000000
  110       -2.030616   1.000000
  111       -1.907096   1.000000
  112       -1.889480   1.000000
  113       -1.815430   1.000000
  114       -1.789870   1.000000
  115       -1.785527   1.000000
  116       -1.699983   1.000000
  117       -1.615752   1.000000
  118       -1.610805   1.000000
  119       -1.408759   1.000000
  120       -1.382774   1.000000
  121       -1.166335   1.000000
  122       -1.058841   1.000000
  123       -1.014848   1.000000
  124       -0.855381   1.000000
  125       -0.726084   1.000000
  126       -0.689279   1.000000
  127       -0.644641   1.000000
  128       -0.622836   1.000000
  129       -0.577168   1.000000
  130       -0.269179   1.000000
  131       -0.266197   1.000000
  132       -0.242228   1.000000
  133        0.056078   1.007396
  134        0.134901   1.035440
  135        0.181918   0.980671
  136        0.193701   0.940238
  137        0.217989   0.813395
  138        0.277339   0.343370
  139        0.319017   0.077513
  140        0.337996   0.011155
  141        0.344289  -0.003487
  142        0.359300  -0.025974
  143        0.520770  -0.000657
  144        0.535135  -0.000324
  145        0.541111  -0.000238
  146        0.674311  -0.000000
  147        0.703965  -0.000000
  148        0.736424  -0.000000
  149        0.836293  -0.000000
  150        0.896267  -0.000000
  151        0.922962  -0.000000
  152        1.000280  -0.000000
  153        1.012613  -0.000000
  154        1.094400  -0.000000
  155        1.131483  -0.000000
  156        1.162384  -0.000000
  157        1.171348  -0.000000
  158        1.195806  -0.000000
  159        1.227600  -0.000000
  160        1.280163  -0.000000
  161        1.284288  -0.000000
  162        1.332007  -0.000000
  163        1.335538  -0.000000
  164        1.382801  -0.000000
  165        1.434003  -0.000000
  166        1.474669  -0.000000
  167        1.503095  -0.000000
  168        1.511978  -0.000000
  169        1.552499  -0.000000
  170        1.557004  -0.000000
  171        1.558856  -0.000000
  172        1.637587  -0.000000
  173        1.658291  -0.000000
  174        1.718680  -0.000000
  175        1.720756  -0.000000
  176        1.749322  -0.000000
  177        1.801648  -0.000000
  178        1.812322  -0.000000
  179        1.820115  -0.000000
  180        1.904412  -0.000000

  0.2000000E+00  0.1262379E-14  0.1111111E+00  0.4444444E-01
    1      -14.008399   1.000000
    2      -13.296850   1.000000
    3      -12.805889   1.000000
    4      -12.404091   1.000000
    5      -12.138703   1.000000
    6      -12.056583   1.000000
    7      -11.766649   1.000000
    8      -11.450550   1.000000
    9      -11.390216   1.000000
   10      -11.335083   1.000000
   11      -11.221024   1.000000
   12      -11.179246   1.000000
   13      -10.933890   1.000000
   14      -10.755606   1.000000
   15      -10.651191   1.000000
   16      -10.611797   1.000000
   17      -10.565004   1.000000
   18      -10.255456   1.000000
   19       -9.789291   1.000000
   20       -9.643733   1.000000
   21       -9.602157   1.000000
   22       -9.542851   1.000000
   23       -9.465238   1.000000
   24       -9.401503   1.000000
   25       -9.184683   1.000000
   26       -8.928089   1.000000
   27       -8.572648   1.000000
   28       -8.314980   1.000000
   29       -8.223049   1.000000
   30       -8.206815   1.000000
   31       -8.136798   1.000000
   32       -8.015209   1.000000
   33       -7.819989   1.000000
   34       -7.623139   1.000000
   35       -7.495411   1.000000
   36       -7.327840   1.000000
   37       -7.186362   1.000000
   38       -7.040128   1.000000
   39       -6.968532   1.000000
   40       -6.791331   1.000000
   41       -6.728115   1.000000
   42       -6.655431   1.000000
   43       -6.619314   1.000000
   44       -6.577545   1.000000
   45       -6.527508   1.000000
   46       -6.461926   1.000000
   47       -6.217900   1.000000
   48       -6.199976   1.000000
   49       -6.103638   1.000000
   50       -5.975441   1.000000
   51       -5.939859   1.000000
   52       -5.810466   1.000000
   53       -5.757493   1.000000
   54       -5.585822   1.000000
   55       -5.457590   1.000000
   56       -5.420108   1.000000
   57       -5.373320   1.000000
   58       -5.354606   1.000000
   59       -5.311549   1.000000
   60       -5.264041   1.000000
   61       -5.243845   1.000000
   62       -5.025858   1.000000
   63       -4.874194   1.000000
   64       -4.760046   1.000000
   65       -4.653790   1.000000
   66       -4.594749   1.000000
   67       -4.536117   1.000000
   68       -4.488630   1.000000
   69       -4.245071   1.000000
   70       -4.228492   1.000000
   71       -4.207520   1.000000
   72       -4.151262   1.000000
   73       -4.120289   1.000000
   74       -4.094906   1.000000
   75       -4.072504   1.000000
   76       -4.011531   1.000000
   77       -3.959301   1.000000
   78       -3.911066   1.000000
   79       -3.863195   1.000000
   80       -3.853204   1.000000
   81       -3.814608   1.000000
   82       -3.796016   1.000000
   83       -3.760536   1.000000
   84       -3.728488   1.000000
   85       -3.683522   1.000000
   86       -3.630264   1.000000
   87       -3.607654   1.000000
   88       -3.555956   1.000000
   89       -3.460278   1.000000
   90       -3.429976   1.000000
   91       -3.371734   1.000000
   92       -3.158107   1.000000
   93       -3.095102   1.000000
   94       -3.028853   1.000000
   95       -2.975931   1.000000
   96       -2.917987   1.000000
   97       -2.837556   1.000000
   98       -2.778556   1.000000
   99       -2.712264   1.000000
  100       -2.579953   1.000000
  101       -2.453283   1.000000
  102       -2.396072   1.000000
  103       -2.314040   1.000000
  104       -2.303449   1.000000
  105       -2.251684   1.000000
  106       -2.122572   1.000000
  107       -2.110348   1.000000
  108       -2.094212   1.000000
  109       -2.045544   1.000000
  110       -2.006149   1.000000
  111       -1.929742   1.000000
  112       -1.849146   1.000000
  113       -1.784279   1.000000
  114       -1.744176   1.000000
  115       -1.694511   1.000000
  116       -1.642093   1.000000
  117       -1.604294   1.000000
  118       -1.479533   1.000000
  119       -1.461210   1.000000
  120       -1.357497   1.000000
  121       -1.188850   1.000000
  122       -1.100914   1.000000
  123       -0.992650   1.000000
  124       -0.950421   1.000000
  125       -0.827763   1.000000
  126       -0.786669   1.000000
  127       -0.721757   1.000000
  128       -0.695341   1.000000
  129       -0.457549   1.000000
  130       -0.430783   1.000000
  131       -0.264423   1.000000
  132       -0.128302   1.000000
  133       -0.014843   1.000384
  134        0.057441   1.007734
  135        0.074472   1.012945
  136        0.081577   1.015657
  137        0.150303   1.031654
  138        0.261962   0.470410
  139        0.295406   0.209759
  140        0.364163  -0.030076
  141        0.432019  -0.017025
  142        0.466650  -0.006082
  143        0.529463  -0.000431
  144        0.549966  -0.000149
  145        0.573418  -0.000039
  146        0.636657  -0.000001
  147        0.713564  -0.000000
  148        0.815591  -0.000000
  149        0.856735  -0.000000
  150        0.913716  -0.000000
  151        0.934147  -0.000000
  152        0.973085  -0.000000
  153        1.094972  -0.000000
  154        1.160483  -0.000000
  155        1.179033  -0.000000
  156        1.219087  -0.000000
  157        1.231087  -0.000000
  158        1.252631  -0.000000
  159        1.266751  -0.000000
  160        1.273431  -0.000000
  161        1.303491  -0.000000
  162        1.320544  -0.000000
  163        1.342873  -0.000000
  164        1.419639  -0.000000
  165        1.433803  -0.000000
  166        1.458078  -0.000000
  167        1.482001  -0.000000
  168        1.510331  -0.000000
  169        1.560416  -0.000000
  170        1.582354  -0.000000
  171        1.604316  -0.000000
  172        1.613633  -0.000000
  173        1.690667  -0.000000