    3    3    1    1
  0.8604740E+01  0.3002604E-09  0.3002604E-09  0.3306224E-09  0.5000000E-15
   1.0000000000000000E-004
  CAR 
 Name                                    
     12    216     10

  0.3742002E-15  0.3742002E-15  0.3742002E-15  0.2962963E-03
    1       -5.674235   1.000000
    2        4.220364   1.000000
    3        4.629674   1.000000
    4        4.629677   1.000000
    5        5.501485   1.000000
    6        9.331928  -0.009520
    7        9.331929  -0.009521
    8       11.556244  -0.000000
    9       11.556247  -0.000000
   10       14.084160   0.000000

  0.6666667E-01  0.3733821E-15  0.3742002E-15  0.1777778E-02
    1       -5.585267   1.000000
    2        4.291312   1.000000
    3        4.412750   1.000000
    4        4.668334   1.000000
    5        5.314352   1.000000
    6        9.290383   0.144539
    7        9.601186  -0.000003
    8       11.130842  -0.000000
    9       11.218545  -0.000000
   10       14.408000   0.000000

  0.1333333E+00  0.3857248E-15  0.3742002E-15  0.1777778E-02
    1       -5.322286   1.000000
    2        3.816771   1.000000
    3        4.489233   1.000000
    4        4.765499   1.000000
    5        4.884274   1.000000
    6        9.175267   0.951662
    7       10.247177  -0.000000
    8       10.341096  -0.000000
    9       10.666628  -0.000000
   10       14.877054   0.000000

  0.2000000E+00  0.3689613E-15  0.3742002E-15  0.1777778E-02
    1       -4.896434   1.000000
    2        3.002918   1.000000
    3        4.401073   1.000000
    4        4.685437   1.000000
    5        4.871757   1.000000
    6        9.011625   1.002556
    7        9.717995  -0.000000
    8       10.283533  -0.000000
    9       10.966771  -0.000000
   10       15.185300   0.000000

  0.2666667E+00  0.3695359E-15  0.3742002E-15  0.1777778E-02
    1       -4.324394   1.000000
    2        2.074674   1.000000
    3        3.966648   1.000000
    4        4.724787   1.000000
    5        4.933332   1.000000
    6        8.831671   1.000000
    7        9.572148  -0.000017
    8       10.169842  -0.000000
    9       11.432214  -0.000000
   10       15.501177   0.000000

  0.3333333E+00  0.4117439E-15  0.3742002E-15  0.1777778E-02
    1       -3.626962   1.000000
    2        1.095412   1.000000
    3        3.624315   1.000000
    4        4.556823   1.000000
    5        4.931351   1.000000
    6        8.666766   1.000000
    7        9.983937  -0.000000
    8       10.294578  -0.000000
    9       11.467689  -0.000000
   10       15.425386   0.000000

  0.4000000E+00  0.3633307E-15  0.3742002E-15  0.1777778E-02
    1       -2.830822   1.000000
    2        0.106251   1.000000
    3        3.391420   1.000000
    4        4.320520   1.000000
    5        4.893150   1.000000
    6        8.542388   1.000000
    7       10.529536  -0.000000
    8       10.731400  -0.000000
    9       11.283399  -0.000000
   10       15.442831   0.000000

  0.4666667E+00  0.3777831E-15  0.3742002E-15  0.1777778E-02
    1       -2.003344   1.000000
    2       -0.819483   1.000000
    3        3.274134   1.000000
    4        4.166901   1.000000
    5        4.860792   1.000000
    6        8.475858   1.000000
    7       10.707273  -0.000000
    8       11.136426  -0.000000
    9       11.378087  -0.000000
   10       15.415162   0.000000

  0.6666667E-01  0.6666667E-01  0.3742002E-15  0.1777778E-02
    1       -5.409247   1.000000
    2        4.021545   1.000000
    3        4.406003   1.000000
    4        4.740930   1.000000
    5        5.012590   1.000000
    6        9.188623   0.893120
    7       10.078120  -0.000000
    8       10.588781  -0.000000
    9       10.765758  -0.000000
   10       14.864654   0.000000

  0.1333333E+00  0.6666667E-01  0.3742002E-15  0.3555556E-02
    1       -5.064627   1.000000
    2        3.356479   1.000000
    3        4.477681   1.000000
    4        4.579066   1.000000
    5        4.931836   1.000000
    6        8.986016   1.000843
    7        9.888216  -0.000000
    8       10.387175  -0.000000
    9       10.824042  -0.000000
   10       15.289440   0.000000

  0.2000000E+00  0.6666667E-01  0.3742002E-15  0.3555556E-02
    1       -4.565029   1.000000
    2        2.523803   1.000000
    3        4.150424   1.000000
    4        4.382238   1.000000
    5        5.208292   1.000000
    6        8.723779   1.000000
    7        9.395225  -0.026643
    8       10.306543  -0.000000
    9       11.539946  -0.000000
   10       15.504918   0.000000

  0.2666667E+00  0.6666667E-01  0.3742002E-15  0.3555556E-02
    1       -3.928753   1.000000
    2        1.599800   1.000000
    3        3.792145   1.000000
    4        4.152887   1.000000
    5        5.394684   1.000000
    6        8.446769   1.000000
    7        9.343068  -0.025211
    8       10.523193  -0.000000
    9       11.908823  -0.000000
   10       15.597896   0.000000

  0.3333333E+00  0.6666667E-01  0.3742002E-15  0.3555556E-02
    1       -3.178283   1.000000
    2        0.631447   1.000000
    3        3.530205   1.000000
    4        3.884280   1.000000
    5        5.424838   1.000000
    6        8.202065   1.000000
    7        9.724602  -0.000000
    8       10.908534  -0.000000
    9       11.893586  -0.000000
   10       15.638690   0.000000

  0.4000000E+00  0.6666667E-01  0.3742002E-15  0.3555556E-02
    1       -2.347727   1.000000
    2       -0.335474   1.000000
    3        3.372656   1.000000
    4        3.679038   1.000000
    5        5.382581   1.000000
    6        8.033579   1.000000
    7       10.257534  -0.000000
    8       11.257019  -0.000000
    9       11.766799  -0.000000
   10       15.683094   0.000000

  0.4666667E+00  0.6666667E-01  0.3742002E-15  0.1777778E-02
    1       -1.687797   1.000000
    2       -1.041992   1.000000
    3        3.320220   1.000000
    4        3.603501   1.000000
    5        5.358352   1.000000
    6        7.973438   1.000000
    7       10.519696  -0.000000
    8       11.389485  -0.000000
    9       11.708900  -0.000000
   10       15.725818   0.000000

  0.1333333E+00  0.1333333E+00  0.3742002E-15  0.1777778E-02
    1       -4.645750   1.000000
    2        2.744445   1.000000
    3        4.180422   1.000000
    4        4.232081   1.000000
    5        5.312231   1.000000
    6        8.603665   1.000000
    7        9.319696   0.018859
    8       10.383458  -0.000000
    9       11.674203  -0.000000
   10       15.512503   0.000000

  0.2000000E+00  0.1333333E+00  0.3742002E-15  0.3555556E-02
    1       -4.080227   1.000000
    2        2.011416   1.000000
    3        3.731307   1.000000
    4        3.929709   1.000000
    5        5.751748   1.000000
    6        8.131268   1.000000
    7        8.890139   1.000004
    8       10.696600  -0.000000
    9       12.499815   0.000000
   10       15.252529   0.000000

  0.2666667E+00  0.1333333E+00  0.3742002E-15  0.3555556E-02
    1       -3.386889   1.000000
    2        1.169974   1.000000
    3        3.285152   1.000000
    4        3.707902   1.000000
    5        6.060261   1.000000
    6        7.666559   1.000000
    7        8.869326   1.000001
    8       11.103490  -0.000000
    9       12.926089   0.000000
   10       16.066062   0.000000

  0.3333333E+00  0.1333333E+00  0.3742002E-15  0.3555556E-02
    1       -2.589917   1.000000
    2        0.251666   1.000000
    3        2.951305   1.000000
    4        3.571403   1.000000
    5        6.139447   1.000000
    6        7.296662   1.000000
    7        9.316406   0.028756
    8       11.309024  -0.000000
    9       12.959084   0.000000
   10       16.245737   0.000000

  0.4000000E+00  0.1333333E+00  0.3742002E-15  0.3555556E-02
    1       -1.741035   1.000000
    2       -0.667424   1.000000
    3        2.777348   1.000000
    4        3.509084   1.000000
    5        6.118729   1.000000
    6        7.091454   1.000000
    7        9.901678  -0.000000
    8       11.176084  -0.000000
    9       12.909069   0.000000
   10       16.484780   0.000000

  0.2000000E+00  0.2000000E+00  0.3742002E-15  0.1777778E-02
    1       -3.456359   1.000000
    2        1.463441   1.000000
    3        2.969240   1.000000
    4        3.793883   1.000000
    5        6.376529   1.000000
    6        7.438471   1.000000
    7        8.465964   1.000000
    8       11.172396  -0.000000
    9       13.569313   0.000000
   10       15.099659   0.000000

  0.2666667E+00  0.2000000E+00  0.3742002E-15  0.3555556E-02
    1       -2.712438   1.000000
    2        0.799928   1.000000
    3        2.324744   1.000000
    4        3.753879   1.000000
    5        6.799066   1.000000
    6        6.857114   1.000000
    7        8.434205   1.000000
    8       11.355367  -0.000000
    9       14.184623   0.000000
   10       15.516158   0.000000

  0.3333333E+00  0.2000000E+00  0.3742002E-15  0.3555556E-02
    1       -1.875141   1.000000
    2       -0.026807   1.000000
    3        1.949959   1.000000
    4        3.778565   1.000000
    5        6.335798   1.000000
    6        6.962088   1.000000
    7        8.977840   1.000573
    8       11.053750  -0.000000
    9       14.232122   0.000000
   10       16.395413   0.000000

  0.4000000E+00  0.2000000E+00  0.3742002E-15  0.1777778E-02
    1       -1.105367   1.000000
    2       -0.806072   1.000000
    3        1.834108   1.000000
    4        3.800900   1.000000
    5        6.162393   1.000000
    6        6.947964   1.000000
    7        9.454903  -0.005339
    8       10.682865  -0.000000
    9       14.215603   0.000000
   10       16.822196   0.000000

  0.2666667E+00  0.2666667E+00  0.3742002E-15  0.1777778E-02
    1       -1.925614   1.000000
    2        0.426896   1.000000
    3        1.437233   1.000000
    4        3.932181   1.000000
    5        6.012490   1.000000
    6        7.695245   1.000000
    7        8.189084   1.000000
    8       11.018815  -0.000000
    9       15.448981   0.000000
   10       15.453869   0.000000

  0.3333333E+00  0.2666667E+00  0.3742002E-15  0.3555556E-02
    1       -1.060286   1.000000
    2       -0.197582   1.000000
    3        0.949862   1.000000
    4        4.164178   1.000000
    5        5.461207   1.000000
    6        7.851252   1.000000
    7        8.749927   1.000000
    8       10.335902  -0.000000
    9       15.414820   0.000000
   10       16.363649   0.000000

  0.3333333E+00  0.3333333E+00  0.3742002E-15  0.5925926E-03
    1       -0.323524   1.000000
    2       -0.323521   1.000000
    3        0.217731   1.000000
    4        4.728673   1.000000
    5        4.728675   1.000000
    6        8.543036   1.000000
    7        8.543037   1.000000
    8        9.797315  -0.000000
    9       16.144870   0.000000
   10       16.144871   0.000000

  0.3742002E-15  0.3742002E-15  0.6666667E-01  0.5925926E-03
    1       -5.612296   1.000000
    2        3.911270   1.000000
    3        4.679515   1.000000
    4        4.679517   1.000000
    5        5.756766   1.000000
    6        9.155040   1.007680
    7        9.155041   1.007678
    8       11.422939  -0.000000
    9       11.422942  -0.000000
   10       14.365359   0.000000

  0.6666667E-01  0.3733821E-15  0.6666667E-01  0.3555556E-02
    1       -5.524322   1.000000
    2        3.964517   1.000000
    3        4.453274   1.000000
    4        4.713061   1.000000
    5        5.582509   1.000000
    6        9.089794   1.026208
    7        9.392704  -0.027778
    8       11.121938  -0.000000
    9       11.204686  -0.000000
   10       14.606668   0.000000

  0.1333333E+00  0.3857248E-15  0.6666667E-01  0.3555556E-02
    1       -5.264400   1.000000
    2        3.841881   1.000000
    3        4.074426   1.000000
    4        4.792614   1.000000
    5        5.235308   1.000000
    6        8.935204   1.000060
    7        9.734086  -0.000000
    8       10.753839  -0.000000
    9       10.818211  -0.000000
   10       14.899896   0.000000

  0.2000000E+00  0.3689613E-15  0.6666667E-01  0.3555556E-02
    1       -4.843761   1.000000
    2        2.999582   1.000000
    3        4.079062   1.000000
    4        4.864044   1.000000
    5        4.964013   1.000000
    6        8.791515   1.000000
    7        9.529985  -0.000190
    8       10.515987  -0.000000
    9       11.117397  -0.000000
   10       15.041181   0.000000

  0.2666667E+00  0.3695359E-15  0.6666667E-01  0.3555556E-02
    1       -4.279060   1.000000
    2        2.049177   1.000000
    3        3.891780   1.000000
    4        4.793451   1.000000
    5        4.875281   1.000000
    6        8.731723   1.000000
    7        9.466761  -0.003445
    8       10.371269  -0.000000
    9       11.505326  -0.000000
   10       15.187985   0.000000

  0.3333333E+00  0.4117439E-15  0.6666667E-01  0.3555556E-02
    1       -3.590476   1.000000
    2        1.058290   1.000000
    3        3.655865   1.000000
    4        4.569352   1.000000
    5        4.821666   1.000000
    6        8.729469   1.000000
    7        9.841094  -0.000000
    8       10.408142  -0.000000
    9       11.554825  -0.000000
   10       15.635108   0.000000

  0.4000000E+00  0.3633307E-15  0.6666667E-01  0.3555556E-02
    1       -2.802092   1.000000
    2        0.065091   1.000000
    3        3.475230   1.000000
    4        4.324634   1.000000
    5        4.745191   1.000000
    6        8.725963   1.000000
    7       10.368478  -0.000000
    8       10.573667  -0.000000
    9       11.586015  -0.000000
   10       15.476197   0.000000

  0.4666667E+00  0.3777831E-15  0.6666667E-01  0.3555556E-02
    1       -1.965216   1.000000
    2       -0.875074   1.000000
    3        3.381315   1.000000
    4        4.171230   1.000000
    5        4.693553   1.000000
    6        8.715642   1.000000
    7       10.574573  -0.000000
    8       10.720525  -0.000000
    9       11.904651  -0.000000
   10       15.227121   0.000000

  0.6666667E-01  0.6666667E-01  0.6666667E-01  0.3555556E-02
    1       -5.350345   1.000000
    2        4.046070   1.000000
    3        4.059530   1.000000
    4        4.715198   1.000000
    5        5.364166   1.000000
    6        8.918371   1.000022
    7        9.777510  -0.000000
    8       10.710824  -0.000000
    9       10.963329  -0.000000
   10       14.959482   0.000000

  0.1333333E+00  0.6666667E-01  0.6666667E-01  0.7111111E-02
    1       -5.009877   1.000000
    2        3.377222   1.000000
    3        4.099680   1.000000
    4        4.577926   1.000000
    5        5.272151   1.000000
    6        8.622560   1.000000
    7        9.922596  -0.000000
    8       10.385831  -0.000000
    9       11.054128  -0.000000
   10       15.260714   0.000000

  0.2000000E+00  0.6666667E-01  0.6666667E-01  0.7111111E-02
    1       -4.516639   1.000000
    2        2.518078   1.000000
    3        3.971313   1.000000
    4        4.380195   1.000000
    5        5.350607   1.000000
    6        8.364726   1.000000
    7        9.655330  -0.000000
    8       10.350586  -0.000000
    9       11.592936  -0.000000
   10       15.218214   0.000000

  0.2666667E+00  0.6666667E-01  0.6666667E-01  0.7111111E-02
    1       -3.888713   1.000000
    2        1.573426   1.000000
    3        3.744781   1.000000
    4        4.148930   1.000000
    5        5.386783   1.000000
    6        8.281133   1.000000
    7        9.597370  -0.000003
    8       10.500647  -0.000000
    9       11.918935  -0.000000
   10       15.515419   0.000000

  0.3333333E+00  0.6666667E-01  0.6666667E-01  0.7111111E-02
    1       -3.147400   1.000000
    2        0.595187   1.000000
    3        3.558204   1.000000
    4        3.887497   1.000000
    5        5.305770   1.000000
    6        8.295079   1.000000
    7        9.843230  -0.000000
    8       10.781437  -0.000000
    9       11.968972  -0.000000
   10       15.699682   0.000000

  0.4000000E+00  0.6666667E-01  0.6666667E-01  0.7111111E-02
    1       -2.321351   1.000000
    2       -0.376832   1.000000
    3        3.453039   1.000000
    4        3.676681   1.000000
    5        5.199448   1.000000
    6        8.273885   1.000000
    7       10.284693  -0.000000
    8       10.944146  -0.000000
    9       12.052722   0.000000
   10       15.539131   0.000000

  0.4666667E+00  0.6666667E-01  0.6666667E-01  0.3555556E-02
    1       -1.622979   1.000000
    2       -1.124554   1.000000
    3        3.424763   1.000000
    4        3.592327   1.000000
    5        5.154904   1.000000
    6        8.255247   1.000000
    7       10.538266  -0.000000
    8       10.934572  -0.000000
    9       12.145130   0.000000
   10       15.443753   0.000000

  0.1333333E+00  0.1333333E+00  0.6666667E-01  0.3555556E-02
    1       -4.596363   1.000000
    2        2.764225   1.000000
    3        3.942899   1.000000
    4        4.202615   1.000000
    5        5.566177   1.000000
    6        8.099955   1.000000
    7        9.805691  -0.000000
    8       10.305782  -0.000000
    9       11.699504  -0.000000
   10       15.385062   0.000000

  0.2000000E+00  0.1333333E+00  0.6666667E-01  0.7111111E-02
    1       -4.038458   1.000000
    2        2.013664   1.000000
    3        3.550464   1.000000
    4        3.975589   1.000000
    5        5.894836   1.000000
    6        7.664872   1.000000
    7        9.411100  -0.019377
    8       10.659311  -0.000000
    9       12.428934   0.000000
   10       15.139225   0.000000

  0.2666667E+00  0.1333333E+00  0.6666667E-01  0.7111111E-02
    1       -3.354606   1.000000
    2        1.150356   1.000000
    3        3.183172   1.000000
    4        3.783768   1.000000
    5        5.992838   1.000000
    6        7.549076   1.000000
    7        9.230317   0.606273
    8       11.046615  -0.000000
    9       12.840218   0.000000
   10       15.394682   0.000000

  0.3333333E+00  0.1333333E+00  0.6666667E-01  0.7111111E-02
    1       -2.567076   1.000000
    2        0.220779   1.000000
    3        2.912680   1.000000
    4        3.654854   1.000000
    5        5.838135   1.000000
    6        7.599268   1.000000
    7        9.467407  -0.003361
    8       11.219365  -0.000000
    9       12.945308   0.000000
   10       15.819259   0.000000

  0.4000000E+00  0.1333333E+00  0.6666667E-01  0.7111111E-02
    1       -1.714729   1.000000
    2       -0.710328   1.000000
    3        2.769412   1.000000
    4        3.596279   1.000000
    5        5.697840   1.000000
    6        7.586890   1.000000
    7        9.954090  -0.000000
    8       11.078997  -0.000000
    9       12.958726   0.000000
   10       16.009446   0.000000

  0.2000000E+00  0.2000000E+00  0.6666667E-01  0.3555556E-02
    1       -3.423599   1.000000
    2        1.465431   1.000000
    3        2.851392   1.000000
    4        3.841095   1.000000
    5        6.523931   1.000000
    6        6.979577   1.000000
    7        8.985808   1.000835
    8       11.134707  -0.000000
    9       13.396626   0.000000
   10       15.013326   0.000000

  0.2666667E+00  0.2000000E+00  0.6666667E-01  0.7111111E-02
    1       -2.690636   1.000000
    2        0.785781   1.000000
    3        2.270432   1.000000
    4        3.805159   1.000000
    5        6.315845   1.000000
    6        7.191933   1.000000
    7        8.785808   1.000000
    8       11.315165  -0.000000
    9       14.026627   0.000000
   10       15.346063   0.000000

  0.3333333E+00  0.2000000E+00  0.6666667E-01  0.7111111E-02
    1       -1.863754   1.000000
    2       -0.052080   1.000000
    3        1.939747   1.000000
    4        3.834205   1.000000
    5        5.882077   1.000000
    6        7.462601   1.000000
    7        9.115525   1.035100
    8       11.030085  -0.000000
    9       14.155498   0.000000
   10       16.055686   0.000000

  0.4000000E+00  0.2000000E+00  0.6666667E-01  0.3555556E-02
    1       -1.057390   1.000000
    2       -0.873836   1.000000
    3        1.837362   1.000000
    4        3.860050   1.000000
    5        5.716864   1.000000
    6        7.487224   1.000000
    7        9.526784  -0.000225
    8       10.678981  -0.000000
    9       14.160726   0.000000
   10       16.405121   0.000000

  0.2666667E+00  0.2666667E+00  0.6666667E-01  0.3555556E-02
    1       -1.917172   1.000000
    2        0.407752   1.000000
    3        1.423250   1.000000
    4        3.965017   1.000000
    5        5.793839   1.000000
    6        7.812113   1.000000
    7        8.508800   1.000000
    8       11.007703  -0.000000
    9       15.218680   0.000000
   10       15.371828   0.000000

  0.3333333E+00  0.2666667E+00  0.6666667E-01  0.7111111E-02
    1       -1.067837   1.000000
    2       -0.220578   1.000000
    3        0.966105   1.000000
    4        4.183038   1.000000
    5        5.309354   1.000000
    6        8.092946   1.000000
    7        8.879766   1.000002
    8       10.353554  -0.000000
    9       15.319015   0.000000
   10       16.172399   0.000000

  0.3333333E+00  0.3333333E+00  0.6666667E-01  0.1185185E-02
    1       -0.367562   1.000000
    2       -0.367560   1.000000
    3        0.294406   1.000000
    4        4.688131   1.000000
    5        4.688133   1.000000
    6        8.706657   1.000000
    7        8.706657   1.000000
    8        9.819598  -0.000000
    9       16.027828   0.000000
   10       16.027829   0.000000

  0.3742002E-15  0.3742002E-15  0.1333333E+00  0.5925926E-03
    1       -5.430298   1.000000
    2        3.277931   1.000000
    3        4.828415   1.000000
    4        4.828418   1.000000
    5        6.242997   1.000000
    6        8.730582   1.000000
    7        8.730583   1.000000
    8       11.047165  -0.000000
    9       11.047168  -0.000000
   10       14.933395   0.000000

  0.6666667E-01  0.3733821E-15  0.1333333E+00  0.3555556E-02
    1       -5.345447   1.000000
    2        3.325955   1.000000
    3        4.586077   1.000000
    4        4.845551   1.000000
    5        6.045568   1.000000
    6        8.634237   1.000000
    7        8.939818   1.000078
    8       10.949127  -0.000000
    9       11.042313  -0.000000
   10       15.185595   0.000000

  0.1333333E+00  0.3857248E-15  0.1333333E+00  0.3555556E-02
    1       -5.095038   1.000000
    2        3.416441   1.000000
    3        3.961877   1.000000
    4        4.868615   1.000000
    5        5.671451   1.000000
    6        8.463017   1.000000
    7        9.171525   0.964875
    8       10.969591  -0.000000
    9       10.999528  -0.000000
   10       15.068404   0.000000

  0.2000000E+00  0.3689613E-15  0.1333333E+00  0.3555556E-02
    1       -4.690688   1.000000
    2        2.940863   1.000000
    3        3.676279   1.000000
    4        4.834775   1.000000
    5        5.299930   1.000000
    6        8.416302   1.000000
    7        9.129522   1.034048
    8       10.905938  -0.000000
    9       11.376318  -0.000000
   10       14.833241   0.000000

  0.2666667E+00  0.3695359E-15  0.1333333E+00  0.3555556E-02
    1       -4.149055   1.000000
    2        1.977295   1.000000
    3        3.724431   1.000000
    4        4.712606   1.000000
    5        4.944254   1.000000
    6        8.580089   1.000000
    7        9.185538   0.908240
    8       10.797048  -0.000000
    9       11.731264  -0.000000
   10       14.791401   0.000000

  0.3333333E+00  0.4117439E-15  0.1333333E+00  0.3555556E-02
    1       -3.489037   1.000000
    2        0.973961   1.000000
    3        3.720265   1.000000
    4        4.541685   1.000000
    5        4.603745   1.000000
    6        8.881482   1.000002
    7        9.500299  -0.000830
    8       10.723901  -0.000000
    9       11.815439  -0.000000
   10       15.145662   0.000000

  0.4000000E+00  0.3633307E-15  0.1333333E+00  0.3555556E-02
    1       -2.729603   1.000000
    2       -0.017640   1.000000
    3        3.688775   1.000000
    4        4.324179   1.000000
    5        4.388019   1.000000
    6        9.166330   0.980992
    7        9.838089  -0.000000
    8       10.721988  -0.000000
    9       12.004651   0.000000
   10       16.263433   0.000000

  0.4666667E+00  0.3777831E-15  0.1333333E+00  0.3555556E-02
    1       -1.890223   1.000000
    2       -0.973230   1.000000
    3        3.665614   1.000000
    4        4.166468   1.000000
    5        4.299989   1.000000
    6        9.319568   0.019225
    7        9.963729  -0.000000
    8       10.761935  -0.000000
    9       12.439891   0.000000
   10       14.804629   0.000000

  0.6666667E-01  0.6666667E-01  0.1333333E+00  0.3555556E-02
    1       -5.177804   1.000000
    2        3.404384   1.000000
    3        4.171159   1.000000
    4        4.795721   1.000000
    5        5.837086   1.000000
    6        8.377163   1.000000
    7        9.284744   0.178472
    8       10.780671  -0.000000
    9       11.115334  -0.000000
   10       15.537183   0.000000

  0.1333333E+00  0.6666667E-01  0.1333333E+00  0.7111111E-02
    1       -4.850302   1.000000
    2        3.352174   1.000000
    3        3.602464   1.000000
    4        4.604693   1.000000
    5        5.722815   1.000000
    6        8.032327   1.000000
    7        9.553730  -0.000051
    8       10.693316  -0.000000
    9       11.338555  -0.000000
   10       15.227221   0.000000

  0.2000000E+00  0.6666667E-01  0.1333333E+00  0.7111111E-02
    1       -4.376936   1.000000
    2        2.485723   1.000000
    3        3.627273   1.000000
    4        4.360951   1.000000
    5        5.598656   1.000000
    6        7.902451   1.000000
    7        9.638162  -0.000000
    8       10.676501  -0.000000
    9       11.752366  -0.000000
   10       14.908400   0.000000

  0.2666667E+00  0.6666667E-01  0.1333333E+00  0.7111111E-02
    1       -3.775416   1.000000
    2        1.507263   1.000000
    3        3.626823   1.000000
    4        4.118217   1.000000
    5        5.343133   1.000000
    6        8.109408   1.000000
    7        9.819445  -0.000000
    8       10.635959  -0.000000
    9       12.029358   0.000000
   10       14.970751   0.000000

  0.3333333E+00  0.6666667E-01  0.1333333E+00  0.7111111E-02
    1       -3.064662   1.000000
    2        0.517232   1.000000
    3        3.591372   1.000000
    4        3.900225   1.000000
    5        5.043090   1.000000
    6        8.496804   1.000000
    7       10.068823  -0.000000
    8       10.633090  -0.000000
    9       12.164618   0.000000
   10       15.247035   0.000000

  0.4000000E+00  0.6666667E-01  0.1333333E+00  0.7111111E-02
    1       -2.263332   1.000000
    2       -0.453413   1.000000
    3        3.555654   1.000000
    4        3.751137   1.000000
    5        4.818327   1.000000
    6        8.791292   1.000000
    7       10.309515  -0.000000
    8       10.628333  -0.000000
    9       12.430756   0.000000
   10       15.117935   0.000000

  0.4666667E+00  0.6666667E-01  0.1333333E+00  0.3555556E-02
    1       -1.433343   1.000000
    2       -1.340021   1.000000
    3        3.538059   1.000000
    4        3.702683   1.000000
    5        4.736057   1.000000
    6        8.881639   1.000002
    7       10.450562  -0.000000
    8       10.592513  -0.000000
    9       12.629996   0.000000
   10       14.925411   0.000000

  0.1333333E+00  0.1333333E+00  0.1333333E+00  0.3555556E-02
    1       -4.453493   1.000000
    2        2.820956   1.000000
    3        3.436378   1.000000
    4        4.200515   1.000000
    5        6.044288   1.000000
    6        7.402523   1.000000
    7       10.073410  -0.000000
    8       10.404610  -0.000000
    9       11.800273  -0.000000
   10       15.203846   0.000000

  0.2000000E+00  0.1333333E+00  0.1333333E+00  0.7111111E-02
    1       -3.919435   1.000000
    2        2.016610   1.000000
    3        3.226830   1.000000
    4        3.992207   1.000000
    5        6.141790   1.000000
    6        7.151298   1.000000
    7       10.107592  -0.000000
    8       10.550728  -0.000000
    9       12.344409   0.000000
   10       14.912676   0.000000

  0.2666667E+00  0.1333333E+00  0.1333333E+00  0.7111111E-02
    1       -3.265784   1.000000
    2        1.103299   1.000000
    3        3.005804   1.000000
    4        3.885685   1.000000
    5        5.744216   1.000000
    6        7.579430   1.000000
    7        9.924562  -0.000000
    8       10.878572  -0.000000
    9       12.725650   0.000000
   10       15.028238   0.000000

  0.3333333E+00  0.1333333E+00  0.1333333E+00  0.7111111E-02
    1       -2.511376   1.000000
    2        0.157651   1.000000
    3        2.835666   1.000000
    4        3.832825   1.000000
    5        5.335944   1.000000
    6        8.107524   1.000000
    7        9.902077  -0.000000
    8       10.992243  -0.000000
    9       12.949813   0.000000
   10       15.296094   0.000000

  0.4000000E+00  0.1333333E+00  0.1333333E+00  0.7111111E-02
    1       -1.675436   1.000000
    2       -0.778142   1.000000
    3        2.742999   1.000000
    4        3.821796   1.000000
    5        5.097357   1.000000
    6        8.388167   1.000000
    7       10.116841  -0.000000
    8       10.864507  -0.000000
    9       13.081021   0.000000
   10       15.384625   0.000000

  0.2000000E+00  0.2000000E+00  0.1333333E+00  0.3555556E-02
    1       -3.332758   1.000000
    2        1.469778   1.000000
    3        2.611407   1.000000
    4        3.907952   1.000000
    5        6.309930   1.000000
    6        6.918506   1.000000
    7        9.816024  -0.000000
    8       11.005885  -0.000000
    9       13.095266   0.000000
   10       14.822099   0.000000

  0.2666667E+00  0.2000000E+00  0.1333333E+00  0.7111111E-02
    1       -2.634796   1.000000
    2        0.749734   1.000000
    3        2.160950   1.000000
    4        3.911267   1.000000
    5        5.745112   1.000000
    6        7.587972   1.000000
    7        9.535596  -0.000140
    8       11.194384  -0.000000
    9       13.715988   0.000000
   10       15.036155   0.000000
