 running on    4 total cores
 distrk:  each k-point on    4 cores,    1 groups
 distr:  one band on    2 cores,    2 groups
 using from now: INCAR     
 vasp.5.4.4.18Apr17-6-g9f103f2a35 (build Dec  7 2020 12:43:57) complex           
 POSCAR found type information on POSCAR  Mo B 
 POSCAR found :  2 types and       3 ions
 scaLAPACK will be used
 LDA part: xc-table for Pade appr. of Perdew
 POSCAR, INCAR and KPOINTS ok, starting setup
 FFT: planning ...
 WAVECAR not read
 augmentation electrons   12.019473928388933     
 soft         electrons   0.0000000000000000     
 augmentation electrons   12.019473928388933     
 soft         electrons   0.0000000000000000     
 augmentation electrons   12.019473928388933     
 soft         electrons   0.0000000000000000     
 augmentation electrons   12.019473928388933     
 soft         electrons   0.0000000000000000     
 total        electrons   12.019473928388933     
 total        electrons   12.019473928388933     
 total        electrons   12.019473928388933     
 total        electrons   12.019473928388933     
 augmentation electrons   177.20266100097092     
 soft         electrons   0.0000000000000000     
 augmentation electrons   177.20266100097092     
 soft         electrons   0.0000000000000000     
 augmentation electrons   177.20266100097092     
 soft         electrons   0.0000000000000000     
 augmentation electrons   177.20266100097092     
 soft         electrons   0.0000000000000000     
 total        electrons   177.20266100097092     
 total        electrons   177.20266100097092     
 total        electrons   177.20266100097092     
 total        electrons   177.20266100097092     
 entering main loop
       N       E                     dE             d eps       ncg     rms          rms(c)
DAV:   1     0.291284353668E+02    0.29128E+02   -0.56560E+03  4328   0.105E+03
DAV:   2    -0.269796063321E+02   -0.56108E+02   -0.53445E+02  5246   0.213E+02
DAV:   3    -0.291504507368E+02   -0.21708E+01   -0.20492E+01  5826   0.378E+01
DAV:   4    -0.291819593429E+02   -0.31509E-01   -0.31183E-01  5642   0.344E+00
DAV:   5    -0.291823522674E+02   -0.39292E-03   -0.39268E-03  5490   0.303E-01    0.314E+01
RMM:   6    -0.253544433146E+02    0.38279E+01   -0.14633E+01  4455   0.228E+01    0.733E+00
RMM:   7    -0.252350993359E+02    0.11934E+00   -0.23565E-01  4853   0.317E+00    0.491E+00
RMM:   8    -0.252164163360E+02    0.18683E-01   -0.74383E-02  4512   0.206E+00    0.125E+00
RMM:   9    -0.252043195397E+02    0.12097E-01   -0.34621E-02  4624   0.116E+00    0.181E-01
RMM:  10    -0.252038489380E+02    0.47060E-03   -0.58614E-04  4935   0.138E-01    0.110E-01
RMM:  11    -0.252037064586E+02    0.14248E-03   -0.26119E-04  4719   0.104E-01    0.169E-02
RMM:  12    -0.252037045789E+02    0.18797E-05   -0.15455E-05  4723   0.219E-02    0.203E-03
RMM:  13    -0.252037044857E+02    0.93238E-07   -0.10855E-06  2965   0.628E-03
   1 F= -.26511527E+02 E0= -.26511436E+02  d E =-.272014E-03
 writing wavefunctions
 augmentation electrons   1.1768918618437043     
 soft         electrons   10.845452414161228     
 augmentation electrons   1.1768918618437043     
 soft         electrons   10.845452414161228     
 augmentation electrons   1.1768918618437043     
 soft         electrons   10.845452414161228     
 augmentation electrons   1.1768918618437043     
 soft         electrons   10.845452414161228     
 total        electrons   12.022344276004933     
 total        electrons   12.022344276004933     
 total        electrons   12.022344276004933     
 total        electrons   12.022344276004933     
