   76   76   85    1
  0.2032295E+02  0.1036705E-08  0.2428040E-08  0.6136055E-09  0.5000000E-15
   1.0000000000000000E-004
  CAR 
 Name                                    
    280     15    180

  0.3742002E-15  0.1262379E-14  0.3742002E-15  0.2222222E-01
    1      -14.032378   1.000000
    2      -12.855794   1.000000
    3      -12.853406   1.000000
    4      -12.846497   1.000000
    5      -11.891946   1.000000
    6      -11.755211   1.000000
    7      -11.714778   1.000000
    8      -11.475865   1.000000
    9      -11.466946   1.000000
   10      -11.316240   1.000000
   11      -11.296061   1.000000
   12      -11.052779   1.000000
   13      -10.958785   1.000000
   14      -10.501906   1.000000
   15      -10.478714   1.000000
   16      -10.387992   1.000000
   17      -10.220342   1.000000
   18      -10.110128   1.000000
   19       -9.788076   1.000000
   20       -9.604546   1.000000
   21       -9.580332   1.000000
   22       -9.498757   1.000000
   23       -9.421845   1.000000
   24       -9.406614   1.000000
   25       -8.902811   1.000000
   26       -8.845030   1.000000
   27       -8.622777   1.000000
   28       -8.537876   1.000000
   29       -8.276924   1.000000
   30       -8.245617   1.000000
   31       -8.172264   1.000000
   32       -7.826219   1.000000
   33       -7.783840   1.000000
   34       -7.411645   1.000000
   35       -7.330662   1.000000
   36       -7.230774   1.000000
   37       -7.057163   1.000000
   38       -6.956799   1.000000
   39       -6.873474   1.000000
   40       -6.741455   1.000000
   41       -6.731747   1.000000
   42       -6.730757   1.000000
   43       -6.717379   1.000000
   44       -6.547643   1.000000
   45       -6.508412   1.000000
   46       -6.278869   1.000000
   47       -6.256550   1.000000
   48       -6.144127   1.000000
   49       -6.132527   1.000000
   50       -5.957661   1.000000
   51       -5.815002   1.000000
   52       -5.704050   1.000000
   53       -5.687446   1.000000
   54       -5.659839   1.000000
   55       -5.650291   1.000000
   56       -5.596794   1.000000
   57       -5.499128   1.000000
   58       -5.431729   1.000000
   59       -5.339160   1.000000
   60       -5.259782   1.000000
   61       -5.243690   1.000000
   62       -4.990289   1.000000
   63       -4.965074   1.000000
   64       -4.841247   1.000000
   65       -4.743494   1.000000
   66       -4.723654   1.000000
   67       -4.719971   1.000000
   68       -4.572001   1.000000
   69       -4.558440   1.000000
   70       -4.366739   1.000000
   71       -4.220886   1.000000
   72       -4.201160   1.000000
   73       -4.175710   1.000000
   74       -4.136637   1.000000
   75       -4.067681   1.000000
   76       -4.044868   1.000000
   77       -3.978931   1.000000
   78       -3.961429   1.000000
   79       -3.953958   1.000000
   80       -3.953300   1.000000
   81       -3.928311   1.000000
   82       -3.826866   1.000000
   83       -3.643429   1.000000
   84       -3.641424   1.000000
   85       -3.611931   1.000000
   86       -3.599679   1.000000
   87       -3.561713   1.000000
   88       -3.533758   1.000000
   89       -3.521894   1.000000
   90       -3.518669   1.000000
   91       -3.497469   1.000000
   92       -3.484844   1.000000
   93       -3.295695   1.000000
   94       -3.239711   1.000000
   95       -3.224385   1.000000
   96       -3.091485   1.000000
   97       -2.974812   1.000000
   98       -2.936707   1.000000
   99       -2.934733   1.000000
  100       -2.802089   1.000000
  101       -2.700870   1.000000
  102       -2.636088   1.000000
  103       -2.541441   1.000000
  104       -2.489638   1.000000
  105       -2.373610   1.000000
  106       -2.327952   1.000000
  107       -2.248590   1.000000
  108       -2.161299   1.000000
  109       -2.047647   1.000000
  110       -2.028113   1.000000
  111       -2.020166   1.000000
  112       -1.999784   1.000000
  113       -1.927445   1.000000
  114       -1.892511   1.000000
  115       -1.759119   1.000000
  116       -1.756316   1.000000
  117       -1.639873   1.000000
  118       -1.636904   1.000000
  119       -1.632396   1.000000
  120       -1.555456   1.000000
  121       -1.427986   1.000000
  122       -1.407184   1.000000
  123       -1.374502   1.000000
  124       -0.919332   1.000000
  125       -0.822391   1.000000
  126       -0.721524   1.000000
  127       -0.549883   1.000000
  128       -0.539259   1.000000
  129       -0.435895   1.000000
  130       -0.368255   1.000000
  131       -0.132161   1.000000
  132       -0.063057   1.000000
  133        0.029790   1.000014
  134        0.201937   1.023224
  135        0.228903   1.034063
  136        0.247202   1.034337
  137        0.262282   1.024399
  138        0.342925   0.654975
  139        0.426835   0.057852
  140        0.444357   0.003218
  141        0.507812  -0.029300
  142        0.530139  -0.019186
  143        0.574123  -0.005224
  144        0.580564  -0.004132
  145        0.592599  -0.002593
  146        0.597396  -0.002133
  147        0.609734  -0.001258
  148        0.623742  -0.000662
  149        0.744474  -0.000000
  150        0.781869  -0.000000
  151        0.814762  -0.000000
  152        0.942486  -0.000000
  153        1.049657  -0.000000
  154        1.107273  -0.000000
  155        1.130279  -0.000000
  156        1.131733  -0.000000
  157        1.170382  -0.000000
  158        1.257879  -0.000000
  159        1.283166  -0.000000
  160        1.329877  -0.000000
  161        1.333129  -0.000000
  162        1.393905  -0.000000
  163        1.395395  -0.000000
  164        1.419702  -0.000000
  165        1.444266  -0.000000
  166        1.528378  -0.000000
  167        1.551210  -0.000000
  168        1.574933  -0.000000
  169        1.575629  -0.000000
  170        1.651471  -0.000000
  171        1.651673  -0.000000
  172        1.660214  -0.000000
  173        1.678265  -0.000000
  174        1.696159  -0.000000
  175        1.701954  -0.000000
  176        1.752810  -0.000000
  177        1.785179  -0.000000
  178        1.832219  -0.000000
  179        1.897255  -0.000000
  180        1.948390  -0.000000

  0.2000000E+00  0.1262379E-14  0.3742002E-15  0.4444444E-01
    1      -13.983099   1.000000
    2      -13.263997   1.000000
    3      -12.809559   1.000000
    4      -12.361547   1.000000
    5      -12.129564   1.000000
    6      -11.875887   1.000000
    7      -11.626300   1.000000
    8      -11.286096   1.000000
    9      -11.284045   1.000000
   10      -11.275356   1.000000
   11      -11.265567   1.000000
   12      -11.115336   1.000000
   13      -10.869356   1.000000
   14      -10.669143   1.000000
   15      -10.599819   1.000000
   16      -10.567318   1.000000
   17      -10.507399   1.000000
   18       -9.872189   1.000000
   19       -9.781618   1.000000
   20       -9.629295   1.000000
   21       -9.513267   1.000000
   22       -9.482672   1.000000
   23       -9.473266   1.000000
   24       -9.366814   1.000000
   25       -9.042526   1.000000
   26       -8.900443   1.000000
   27       -8.298419   1.000000
   28       -8.233467   1.000000
   29       -8.222854   1.000000
   30       -8.202542   1.000000
   31       -8.168092   1.000000
   32       -8.096060   1.000000
   33       -7.644923   1.000000
   34       -7.532594   1.000000
   35       -7.251102   1.000000
   36       -7.242023   1.000000
   37       -7.208382   1.000000
   38       -7.195299   1.000000
   39       -6.911352   1.000000
   40       -6.819181   1.000000
   41       -6.803788   1.000000
   42       -6.728397   1.000000
   43       -6.655479   1.000000
   44       -6.559307   1.000000
   45       -6.477665   1.000000
   46       -6.332263   1.000000
   47       -6.206541   1.000000
   48       -6.110720   1.000000
   49       -6.103160   1.000000
   50       -6.065072   1.000000
   51       -5.753569   1.000000
   52       -5.716590   1.000000
   53       -5.620293   1.000000
   54       -5.454056   1.000000
   55       -5.423859   1.000000
   56       -5.411330   1.000000
   57       -5.410090   1.000000
   58       -5.387393   1.000000
   59       -5.382063   1.000000
   60       -5.346875   1.000000
   61       -5.294709   1.000000
   62       -5.238657   1.000000
   63       -4.881297   1.000000
   64       -4.877047   1.000000
   65       -4.875571   1.000000
   66       -4.778274   1.000000
   67       -4.703608   1.000000
   68       -4.598236   1.000000
   69       -4.557794   1.000000
   70       -4.493664   1.000000
   71       -4.299472   1.000000
   72       -4.187295   1.000000
   73       -4.157270   1.000000
   74       -4.113193   1.000000
   75       -4.047119   1.000000
   76       -4.027429   1.000000
   77       -4.021890   1.000000
   78       -3.927168   1.000000
   79       -3.922812   1.000000
   80       -3.870556   1.000000
   81       -3.822979   1.000000
   82       -3.786347   1.000000
   83       -3.782030   1.000000
   84       -3.659262   1.000000
   85       -3.633209   1.000000
   86       -3.632541   1.000000
   87       -3.590104   1.000000
   88       -3.560369   1.000000
   89       -3.484370   1.000000
   90       -3.477015   1.000000
   91       -3.472174   1.000000
   92       -3.432423   1.000000
   93       -3.361053   1.000000
   94       -3.295963   1.000000
   95       -3.218430   1.000000
   96       -3.102381   1.000000
   97       -3.024801   1.000000
   98       -2.994021   1.000000
   99       -2.810664   1.000000
  100       -2.792526   1.000000
  101       -2.746449   1.000000
  102       -2.640194   1.000000
  103       -2.538371   1.000000
  104       -2.511356   1.000000
  105       -2.403141   1.000000
  106       -2.350882   1.000000
  107       -2.224793   1.000000
  108       -2.175086   1.000000
  109       -2.010248   1.000000
  110       -1.954088   1.000000
  111       -1.939840   1.000000
  112       -1.927430   1.000000
  113       -1.890375   1.000000
  114       -1.838535   1.000000
  115       -1.801171   1.000000
  116       -1.750261   1.000000
  117       -1.662606   1.000000
  118       -1.601285   1.000000
  119       -1.503974   1.000000
  120       -1.490663   1.000000
  121       -1.439659   1.000000
  122       -1.336793   1.000000
  123       -1.309849   1.000000
  124       -0.995013   1.000000
  125       -0.842272   1.000000
  126       -0.819159   1.000000
  127       -0.645335   1.000000
  128       -0.554876   1.000000
  129       -0.443047   1.000000
  130       -0.442505   1.000000
  131       -0.284785   1.000000
  132       -0.236826   1.000000
  133       -0.120124   1.000000
  134        0.082746   1.000290
  135        0.106877   1.000936
  136        0.165126   1.008946
  137        0.227543   1.033702
  138        0.378325   0.360587
  139        0.387082   0.291880
  140        0.512039  -0.027453
  141        0.519780  -0.023906
  142        0.524376  -0.021784
  143        0.597423  -0.002130
  144        0.635038  -0.000381
  145        0.643083  -0.000253
  146        0.643302  -0.000250
  147        0.662748  -0.000088
  148        0.707688  -0.000006
  149        0.751622  -0.000000
  150        0.796721  -0.000000
  151        0.943836  -0.000000
  152        0.982896  -0.000000
  153        1.076965  -0.000000
  154        1.117745  -0.000000
  155        1.193225  -0.000000
  156        1.220759  -0.000000
  157        1.243024  -0.000000
  158        1.289319  -0.000000
  159        1.290030  -0.000000
  160        1.332968  -0.000000
  161        1.358346  -0.000000
  162        1.395032  -0.000000
  163        1.420436  -0.000000
  164        1.469293  -0.000000
  165        1.475868  -0.000000
  166        1.539501  -0.000000
  167        1.549083  -0.000000
  168        1.567659  -0.000000
  169        1.587753  -0.000000
  170        1.605878  -0.000000
  171        1.654031  -0.000000
  172        1.680396  -0.000000
  173        1.702488  -0.000000
  174        1.706339  -0.000000
  175        1.730731  -0.000000
  176        1.802422  -0.000000
  177        1.819405  -0.000000
  178        1.893034  -0.000000
  179        1.908250  -0.000000
  180        1.937625  -0.000000

  0.4000000E+00  0.1262379E-14  0.3742002E-15  0.4444444E-01
    1      -13.836287   1.000000
    2      -13.594957   1.000000
    3      -12.671603   1.000000
    4      -12.444190   1.000000
    5      -11.827207   1.000000
    6      -11.806514   1.000000
    7      -11.744563   1.000000
    8      -11.255843   1.000000
    9      -11.209395   1.000000
   10      -11.207813   1.000000
   11      -11.142415   1.000000
   12      -11.043366   1.000000
   13      -10.949665   1.000000
   14      -10.810130   1.000000
   15      -10.733107   1.000000
   16      -10.727631   1.000000
   17      -10.601653   1.000000
   18      -10.138876   1.000000
   19       -9.756600   1.000000
   20       -9.704264   1.000000
   21       -9.418059   1.000000
   22       -9.411390   1.000000
   23       -9.374342   1.000000
   24       -9.356448   1.000000
   25       -9.126830   1.000000
   26       -8.839778   1.000000
   27       -8.333197   1.000000
   28       -8.097367   1.000000
   29       -7.892206   1.000000
   30       -7.891229   1.000000
   31       -7.852167   1.000000
   32       -7.830508   1.000000
   33       -7.816880   1.000000
   34       -7.754310   1.000000
   35       -7.537382   1.000000
   36       -7.515008   1.000000
   37       -7.391768   1.000000
   38       -7.332474   1.000000
   39       -7.249219   1.000000
   40       -6.975173   1.000000
   41       -6.809831   1.000000
   42       -6.598591   1.000000
   43       -6.590005   1.000000
   44       -6.469257   1.000000
   45       -6.442330   1.000000
   46       -6.209671   1.000000
   47       -6.200691   1.000000
   48       -6.018282   1.000000
   49       -5.982825   1.000000
   50       -5.891545   1.000000
   51       -5.883622   1.000000
   52       -5.766582   1.000000
   53       -5.750579   1.000000
   54       -5.623975   1.000000
   55       -5.469235   1.000000
   56       -5.364064   1.000000
   57       -5.358500   1.000000
   58       -5.337600   1.000000
   59       -5.191796   1.000000
   60       -5.149424   1.000000
   61       -5.134860   1.000000
   62       -5.064112   1.000000
   63       -5.055453   1.000000
   64       -4.928919   1.000000
   65       -4.866890   1.000000
   66       -4.787248   1.000000
   67       -4.721571   1.000000
   68       -4.682468   1.000000
   69       -4.617656   1.000000
   70       -4.468485   1.000000
   71       -4.390824   1.000000
   72       -4.294667   1.000000
   73       -4.204938   1.000000
   74       -4.183160   1.000000
   75       -4.142076   1.000000
   76       -4.112143   1.000000
   77       -3.999114   1.000000
   78       -3.965970   1.000000
   79       -3.871542   1.000000
   80       -3.831645   1.000000
   81       -3.764886   1.000000
   82       -3.749024   1.000000
   83       -3.741720   1.000000
   84       -3.730340   1.000000
   85       -3.698675   1.000000
   86       -3.668039   1.000000
   87       -3.547732   1.000000
   88       -3.523147   1.000000
   89       -3.500971   1.000000
   90       -3.475942   1.000000
   91       -3.384443   1.000000
   92       -3.303629   1.000000
   93       -3.282631   1.000000
   94       -3.271642   1.000000
   95       -3.153998   1.000000
   96       -3.148256   1.000000
   97       -3.121102   1.000000
   98       -3.014071   1.000000
   99       -2.988536   1.000000
  100       -2.871853   1.000000
  101       -2.810009   1.000000
  102       -2.673843   1.000000
  103       -2.523552   1.000000
  104       -2.441606   1.000000
  105       -2.424736   1.000000
  106       -2.235042   1.000000
  107       -2.197428   1.000000
  108       -2.129628   1.000000
  109       -2.054958   1.000000
  110       -1.953947   1.000000
  111       -1.932667   1.000000
  112       -1.929551   1.000000
  113       -1.828373   1.000000
  114       -1.714032   1.000000
  115       -1.687070   1.000000
  116       -1.683644   1.000000
  117       -1.617061   1.000000
  118       -1.534522   1.000000
  119       -1.459923   1.000000
  120       -1.256243   1.000000
  121       -1.217884   1.000000
  122       -1.143620   1.000000
  123       -1.117788   1.000000
  124       -1.117000   1.000000
  125       -1.086811   1.000000
  126       -0.927011   1.000000
  127       -0.825193   1.000000
  128       -0.783446   1.000000
  129       -0.726455   1.000000
  130       -0.596403   1.000000
  131       -0.469450   1.000000
  132       -0.437594   1.000000
  133       -0.128818   1.000000
  134       -0.104313   1.000000
  135        0.038295   1.000024
  136        0.199455   1.022080
  137        0.210400   1.027116
  138        0.309650   0.880589
  139        0.433181   0.034710
  140        0.444750   0.002314
  141        0.476462  -0.034471
  142        0.541650  -0.014410
  143        0.592854  -0.002567
  144        0.615709  -0.000962
  145        0.648556  -0.000190
  146        0.670103  -0.000058
  147        0.678487  -0.000035
  148        0.724261  -0.000002
  149        0.795567  -0.000000
  150        0.947766  -0.000000
  151        1.101946  -0.000000
  152        1.146359  -0.000000
  153        1.156573  -0.000000
  154        1.164060  -0.000000
  155        1.235033  -0.000000
  156        1.245278  -0.000000
  157        1.284455  -0.000000
  158        1.363602  -0.000000
  159        1.403304  -0.000000
  160        1.420201  -0.000000
  161        1.421324  -0.000000
  162        1.446505  -0.000000
  163        1.473841  -0.000000
  164        1.529933  -0.000000
  165        1.541144  -0.000000
  166        1.580823  -0.000000
  167        1.603368  -0.000000
  168        1.605799  -0.000000
  169        1.615529  -0.000000
  170        1.616518  -0.000000
  171        1.677625  -0.000000
  172        1.700606  -0.000000
  173        1.731025  -0.000000
  174        1.750688  -0.000000
  175        1.783713  -0.000000
  176        1.802570  -0.000000
  177        1.828356  -0.000000
  178        1.830218  -0.000000
  179        1.903370  -0.000000
  180        1.940824  -0.000000

  0.3742002E-15  0.1262379E-14  0.1111111E+00  0.4444444E-01
    1      -13.986826   1.000000
    2      -12.818515   1.000000
    3      -12.816762   1.000000
    4      -12.811757   1.000000
    5      -11.997933   1.000000
    6      -11.726538   1.000000
    7      -11.685124   1.000000
    8      -11.521512   1.000000
    9      -11.514301   1.000000
   10      -11.374864   1.000000
   11      -11.267247   1.000000
   12      -11.062528   1.000000
   13      -10.971229   1.000000
   14      -10.504568   1.000000
   15      -10.477916   1.000000
   16      -10.354418   1.000000
   17      -10.204905   1.000000
   18      -10.070709   1.000000
   19       -9.808895   1.000000
   20       -9.635947   1.000000
   21       -9.560429   1.000000
   22       -9.526576   1.000000
   23       -9.419819   1.000000
   24       -9.394317   1.000000
   25       -8.874685   1.000000
   26       -8.873922   1.000000
   27       -8.622518   1.000000
   28       -8.528716   1.000000
   29       -8.317661   1.000000
   30       -8.227135   1.000000
   31       -8.008475   1.000000
   32       -7.878306   1.000000
   33       -7.838365   1.000000
   34       -7.446222   1.000000
   35       -7.385815   1.000000
   36       -7.336279   1.000000
   37       -7.030353   1.000000
   38       -6.968250   1.000000
   39       -6.858996   1.000000
   40       -6.719379   1.000000
   41       -6.668102   1.000000
   42       -6.667345   1.000000
   43       -6.662538   1.000000
   44       -6.529360   1.000000
   45       -6.498947   1.000000
   46       -6.294995   1.000000
   47       -6.280348   1.000000
   48       -6.188656   1.000000
   49       -6.151691   1.000000
   50       -5.907494   1.000000
   51       -5.771766   1.000000
   52       -5.757864   1.000000
   53       -5.722152   1.000000
   54       -5.668374   1.000000
   55       -5.603622   1.000000
   56       -5.541989   1.000000
   57       -5.481962   1.000000
   58       -5.448240   1.000000
   59       -5.255512   1.000000
   60       -5.222810   1.000000
   61       -5.192251   1.000000
   62       -5.000900   1.000000
   63       -4.940014   1.000000
   64       -4.810233   1.000000
   65       -4.701647   1.000000
   66       -4.694589   1.000000
   67       -4.630883   1.000000
   68       -4.570319   1.000000
   69       -4.551922   1.000000
   70       -4.340445   1.000000
   71       -4.261815   1.000000
   72       -4.218111   1.000000
   73       -4.156660   1.000000
   74       -4.138829   1.000000
   75       -4.099279   1.000000
   76       -4.037716   1.000000
   77       -4.026188   1.000000
   78       -4.012934   1.000000
   79       -3.977643   1.000000
   80       -3.954472   1.000000
   81       -3.952028   1.000000
   82       -3.888963   1.000000
   83       -3.791107   1.000000
   84       -3.774100   1.000000
   85       -3.702044   1.000000
   86       -3.686398   1.000000
   87       -3.644281   1.000000
   88       -3.583839   1.000000
   89       -3.564312   1.000000
   90       -3.528676   1.000000
   91       -3.490579   1.000000
   92       -3.480088   1.000000
   93       -3.345280   1.000000
   94       -3.246776   1.000000
   95       -3.220587   1.000000
   96       -3.129477   1.000000
   97       -2.975925   1.000000
   98       -2.901355   1.000000
   99       -2.887089   1.000000
  100       -2.713151   1.000000
  101       -2.660688   1.000000
  102       -2.546582   1.000000
  103       -2.536305   1.000000
  104       -2.522669   1.000000
  105       -2.399251   1.000000
  106       -2.315695   1.000000
  107       -2.221153   1.000000
  108       -2.191850   1.000000
  109       -2.096168   1.000000
  110       -2.067022   1.000000
  111       -2.033838   1.000000
  112       -1.938014   1.000000
  113       -1.918546   1.000000
  114       -1.824469   1.000000
  115       -1.811435   1.000000
  116       -1.694933   1.000000
  117       -1.691113   1.000000
  118       -1.643222   1.000000
  119       -1.627409   1.000000
  120       -1.509936   1.000000
  121       -1.379833   1.000000
  122       -1.345831   1.000000
  123       -1.322609   1.000000
  124       -0.923942   1.000000
  125       -0.851784   1.000000
  126       -0.692622   1.000000
  127       -0.599717   1.000000
  128       -0.547924   1.000000
  129       -0.479641   1.000000
  130       -0.310501   1.000000
  131       -0.299762   1.000000
  132       -0.181230   1.000000
  133        0.107899   1.000980
  134        0.164072   1.008654
  135        0.206896   1.025518
  136        0.215537   1.029369
  137        0.223056   1.032293
  138        0.238231   1.035446
  139        0.346685   0.624631
  140        0.410970   0.133350
  141        0.416075   0.106293
  142        0.436211   0.025034
  143        0.562153  -0.007851
  144        0.580039  -0.004213
  145        0.616597  -0.000923
  146        0.766592  -0.000000
  147        0.803685  -0.000000
  148        0.807100  -0.000000
  149        0.813839  -0.000000
  150        0.869492  -0.000000
  151        0.905646  -0.000000
  152        0.981215  -0.000000
  153        1.028112  -0.000000
  154        1.042954  -0.000000
  155        1.079670  -0.000000
  156        1.130139  -0.000000
  157        1.212345  -0.000000
  158        1.243958  -0.000000
  159        1.291644  -0.000000
  160        1.295250  -0.000000
  161        1.371722  -0.000000
  162        1.379421  -0.000000
  163        1.423933  -0.000000
  164        1.432394  -0.000000
  165        1.440551  -0.000000
  166        1.522739  -0.000000
  167        1.523333  -0.000000
  168        1.548924  -0.000000
  169        1.602145  -0.000000
  170        1.605710  -0.000000
  171        1.629113  -0.000000
  172        1.638447  -0.000000
  173        1.676657  -0.000000
  174        1.714070  -0.000000
  175        1.733332  -0.000000
  176        1.807607  -0.000000
  177        1.808925  -0.000000
  178        1.873395  -0.000000
  179        1.877398  -0.000000
  180        1.901513  -0.000000

  0.2000000E+00  0.1262379E-14  0.1111111E+00  0.8888889E-01
    1      -13.937947   1.000000
    2      -13.225136   1.000000
    3      -12.770908   1.000000
    4      -12.332295   1.000000
    5      -12.096739   1.000000
    6      -11.978936   1.000000
    7      -11.688419   1.000000
    8      -11.356640   1.000000
    9      -11.313504   1.000000
   10      -11.242291   1.000000
   11      -11.232001   1.000000
   12      -11.138657   1.000000
   13      -10.872163   1.000000
   14      -10.639588   1.000000
   15      -10.586858   1.000000
   16      -10.550811   1.000000
   17      -10.517855   1.000000
   18       -9.851427   1.000000
   19       -9.804515   1.000000
   20       -9.624907   1.000000
   21       -9.503123   1.000000
   22       -9.496351   1.000000
   23       -9.469234   1.000000
   24       -9.372217   1.000000
   25       -9.041809   1.000000
   26       -8.895106   1.000000
   27       -8.323094   1.000000
   28       -8.257845   1.000000
   29       -8.205901   1.000000
   30       -8.201402   1.000000
   31       -8.170933   1.000000
   32       -7.940023   1.000000
   33       -7.725400   1.000000
   34       -7.615080   1.000000
   35       -7.330734   1.000000
   36       -7.206892   1.000000
   37       -7.179011   1.000000
   38       -7.116913   1.000000
   39       -6.927801   1.000000
   40       -6.861652   1.000000
   41       -6.791074   1.000000
   42       -6.721870   1.000000
   43       -6.599721   1.000000
   44       -6.543995   1.000000
   45       -6.516872   1.000000
   46       -6.445635   1.000000
   47       -6.206629   1.000000
   48       -6.150134   1.000000
   49       -6.015544   1.000000
   50       -5.893627   1.000000
   51       -5.783620   1.000000
   52       -5.745382   1.000000
   53       -5.597728   1.000000
   54       -5.521442   1.000000
   55       -5.519642   1.000000
   56       -5.428606   1.000000
   57       -5.386087   1.000000
   58       -5.369508   1.000000
   59       -5.315419   1.000000
   60       -5.256902   1.000000
   61       -5.186020   1.000000
   62       -5.178392   1.000000
   63       -4.913842   1.000000
   64       -4.854957   1.000000
   65       -4.823368   1.000000
   66       -4.743216   1.000000
   67       -4.637102   1.000000
   68       -4.596086   1.000000
   69       -4.539430   1.000000
   70       -4.452243   1.000000
   71       -4.299064   1.000000
   72       -4.185887   1.000000
   73       -4.170189   1.000000
   74       -4.129753   1.000000
   75       -4.082826   1.000000
   76       -4.026264   1.000000
   77       -4.005420   1.000000
   78       -3.991070   1.000000
   79       -3.976466   1.000000
   80       -3.922041   1.000000
   81       -3.863733   1.000000
   82       -3.815476   1.000000
   83       -3.792217   1.000000
   84       -3.771087   1.000000
   85       -3.744083   1.000000
   86       -3.717175   1.000000
   87       -3.662606   1.000000
   88       -3.618990   1.000000
   89       -3.543965   1.000000
   90       -3.519087   1.000000
   91       -3.493995   1.000000
   92       -3.374553   1.000000
   93       -3.370097   1.000000
   94       -3.281819   1.000000
   95       -3.242561   1.000000
   96       -3.109093   1.000000
   97       -2.976859   1.000000
   98       -2.931309   1.000000
   99       -2.866387   1.000000
  100       -2.825493   1.000000
  101       -2.724011   1.000000
  102       -2.635734   1.000000
  103       -2.540349   1.000000
  104       -2.415102   1.000000
  105       -2.401354   1.000000
  106       -2.347298   1.000000
  107       -2.216449   1.000000
  108       -2.187169   1.000000
  109       -2.040013   1.000000
  110       -2.022109   1.000000
  111       -1.962082   1.000000
  112       -1.879055   1.000000
  113       -1.855310   1.000000
  114       -1.797807   1.000000
  115       -1.776020   1.000000
  116       -1.717433   1.000000
  117       -1.694455   1.000000
  118       -1.636385   1.000000
  119       -1.586573   1.000000
  120       -1.463595   1.000000
  121       -1.388741   1.000000
  122       -1.348353   1.000000
  123       -1.281063   1.000000
  124       -0.964291   1.000000
  125       -0.917518   1.000000
  126       -0.783520   1.000000
  127       -0.700636   1.000000
  128       -0.648455   1.000000
  129       -0.456530   1.000000
  130       -0.432322   1.000000
  131       -0.273968   1.000000
  132       -0.088998   1.000000
  133        0.025892   1.000011
  134        0.072644   1.000171
  135        0.103083   1.000785
  136        0.140586   1.003828
  137        0.142203   1.004067
  138        0.291685   0.959557
  139        0.306605   0.896262
  140        0.417641   0.098512
  141        0.466689  -0.029639
  142        0.513041  -0.027002
  143        0.596918  -0.002175
  144        0.603136  -0.001676
  145        0.606605  -0.001443
  146        0.691773  -0.000016
  147        0.763982  -0.000000
  148        0.768650  -0.000000
  149        0.881966  -0.000000
  150        0.948642  -0.000000
  151        1.009107  -0.000000
  152        1.018745  -0.000000
  153        1.045411  -0.000000
  154        1.057254  -0.000000
  155        1.182674  -0.000000
  156        1.244019  -0.000000
  157        1.259032  -0.000000
  158        1.262842  -0.000000
  159        1.294534  -0.000000
  160        1.307133  -0.000000
  161        1.375706  -0.000000
  162        1.384783  -0.000000
  163        1.397690  -0.000000
  164        1.473956  -0.000000
  165        1.486717  -0.000000
  166        1.492570  -0.000000
  167        1.516306  -0.000000
  168        1.572893  -0.000000
  169        1.611884  -0.000000
  170        1.621051  -0.000000
  171        1.654086  -0.000000
  172        1.664399  -0.000000
  173        1.677824  -0.000000