 running on   72 total cores
 distrk:  each k-point on   72 cores,    1 groups
 distr:  one band on   12 cores,    6 groups
 using from now: INCAR     
 vasp.5.4.4.18Apr17-6-g9f103f2a35 (build Dec  7 2020 12:43:57) complex           
 POSCAR found type information on POSCAR  Mo V  B  H 
 POSCAR found :  4 types and      76 ions
 scaLAPACK will be used
 LDA part: xc-table for Pade appr. of Perdew
 POSCAR, INCAR and KPOINTS ok, starting setup
 resort distribution
 resort distribution
 resort distribution
 resort distribution
 resort distribution
 resort distribution
 resort distribution
 resort distribution
 resort distribution
 resort distribution
 resort distribution
 resort distribution
 resort distribution
 resort distribution
 resort distribution
 resort distribution
 resort distribution
 resort distribution
 resort distribution
 resort distribution
 resort distribution
 resort distribution
 resort distribution
 resort distribution
 resort distribution
 resort distribution
 resort distribution
 resort distribution
 resort distribution
 resort distribution
 resort distribution
 resort distribution
 resort distribution
 resort distribution
 resort distribution
 resort distribution
 resort distribution
 resort distribution
 resort distribution
 resort distribution
 resort distribution
 resort distribution
 resort distribution
 resort distribution
 resort distribution
 resort distribution
 resort distribution
 resort distribution
 resort distribution
 resort distribution
 resort distribution
 resort distribution
 resort distribution
 resort distribution
 resort distribution
 resort distribution
 resort distribution
 resort distribution
 resort distribution
 resort distribution
 resort distribution
 resort distribution
 resort distribution
 resort distribution
 resort distribution
 resort distribution
 resort distribution
 resort distribution
 resort distribution
 resort distribution
 resort distribution
 resort distribution
 FFT: planning ...
 WAVECAR not read
 augmentation electrons   280.02615558700609     
 soft         electrons   0.0000000000000000     
 augmentation electrons   280.02615558700609     
 soft         electrons   0.0000000000000000     
 augmentation electrons   280.02615558700609     
 soft         electrons   0.0000000000000000     
 augmentation electrons   280.02615558700609     
 soft         electrons   0.0000000000000000     
 augmentation electrons   280.02615558700609     
 soft         electrons   0.0000000000000000     
 augmentation electrons   280.02615558700609     
 soft         electrons   0.0000000000000000     
 augmentation electrons   280.02615558700609     
 soft         electrons   0.0000000000000000     
 augmentation electrons   280.02615558700609     
 soft         electrons   0.0000000000000000     
 augmentation electrons   280.02615558700609     
 soft         electrons   0.0000000000000000     
 augmentation electrons   280.02615558700609     
 soft         electrons   0.0000000000000000     
 augmentation electrons   280.02615558700609     
 soft         electrons   0.0000000000000000     
 augmentation electrons   280.02615558700609     
 soft         electrons   0.0000000000000000     
 augmentation electrons   280.02615558700609     
 soft         electrons   0.0000000000000000     
 augmentation electrons   280.02615558700609     
 soft         electrons   0.0000000000000000     
 augmentation electrons   280.02615558700609     
 soft         electrons   0.0000000000000000     
 augmentation electrons   280.02615558700609     
 soft         electrons   0.0000000000000000     
 augmentation electrons   280.02615558700609     
 soft         electrons   0.0000000000000000     
 augmentation electrons   280.02615558700609     
 soft         electrons   0.0000000000000000     
 augmentation electrons   280.02615558700609     
 soft         electrons   0.0000000000000000     
 augmentation electrons   280.02615558700609     
 soft         electrons   0.0000000000000000     
 augmentation electrons   280.02615558700609     
 soft         electrons   0.0000000000000000     
 augmentation electrons   280.02615558700609     
 soft         electrons   0.0000000000000000     
 augmentation electrons   280.02615558700609     
 soft         electrons   0.0000000000000000     
 augmentation electrons   280.02615558700609     
 soft         electrons   0.0000000000000000     
 augmentation electrons   280.02615558700609     
 soft         electrons   0.0000000000000000     
 augmentation electrons   280.02615558700609     
 soft         electrons   0.0000000000000000     
 augmentation electrons   280.02615558700609     
 soft         electrons   0.0000000000000000     
 augmentation electrons   280.02615558700609     
 soft         electrons   0.0000000000000000     
 augmentation electrons   280.02615558700609     
 soft         electrons   0.0000000000000000     
 augmentation electrons   280.02615558700609     
 soft         electrons   0.0000000000000000     
 augmentation electrons   280.02615558700609     
 soft         electrons   0.0000000000000000     
 augmentation electrons   280.02615558700609     
 soft         electrons   0.0000000000000000     
 augmentation electrons   280.02615558700609     
 soft         electrons   0.0000000000000000     
 augmentation electrons   280.02615558700609     
 soft         electrons   0.0000000000000000     
 augmentation electrons   280.02615558700609     
 soft         electrons   0.0000000000000000     
 augmentation electrons   280.02615558700609     
 soft         electrons   0.0000000000000000     
 augmentation electrons   280.02615558700609     
 soft         electrons   0.0000000000000000     
 augmentation electrons   280.02615558700609     
 soft         electrons   0.0000000000000000     
 augmentation electrons   280.02615558700609     
 soft         electrons   0.0000000000000000     
 augmentation electrons   280.02615558700609     
 soft         electrons   0.0000000000000000     
 augmentation electrons   280.02615558700609     
 soft         electrons   0.0000000000000000     
 augmentation electrons   280.02615558700609     
 soft         electrons   0.0000000000000000     
 augmentation electrons   280.02615558700609     
 soft         electrons   0.0000000000000000     
 augmentation electrons   280.02615558700609     
 soft         electrons   0.0000000000000000     
 augmentation electrons   280.02615558700609     
 soft         electrons   0.0000000000000000     
 augmentation electrons   280.02615558700609     
 soft         electrons   0.0000000000000000     
 augmentation electrons   280.02615558700609     
 soft         electrons   0.0000000000000000     
 augmentation electrons   280.02615558700609     
 soft         electrons   0.0000000000000000     
 augmentation electrons   280.02615558700609     
 soft         electrons   0.0000000000000000     
 augmentation electrons   280.02615558700609     
 soft         electrons   0.0000000000000000     
 augmentation electrons   280.02615558700609     
 soft         electrons   0.0000000000000000     
 augmentation electrons   280.02615558700609     
 soft         electrons   0.0000000000000000     
 augmentation electrons   280.02615558700609     
 soft         electrons   0.0000000000000000     
 augmentation electrons   280.02615558700609     
 soft         electrons   0.0000000000000000     
 augmentation electrons   280.02615558700609     
 soft         electrons   0.0000000000000000     
 augmentation electrons   280.02615558700609     
 soft         electrons   0.0000000000000000     
 augmentation electrons   280.02615558700609     
 soft         electrons   0.0000000000000000     
 augmentation electrons   280.02615558700609     
 soft         electrons   0.0000000000000000     
 augmentation electrons   280.02615558700609     
 soft         electrons   0.0000000000000000     
 augmentation electrons   280.02615558700609     
 soft         electrons   0.0000000000000000     
 augmentation electrons   280.02615558700609     
 soft         electrons   0.0000000000000000     
 augmentation electrons   280.02615558700609     
 soft         electrons   0.0000000000000000     
 augmentation electrons   280.02615558700609     
 soft         electrons   0.0000000000000000     
 augmentation electrons   280.02615558700609     
 soft         electrons   0.0000000000000000     
 augmentation electrons   280.02615558700609     
 soft         electrons   0.0000000000000000     
 augmentation electrons   280.02615558700609     
 soft         electrons   0.0000000000000000     
 augmentation electrons   280.02615558700609     
 soft         electrons   0.0000000000000000     
 augmentation electrons   280.02615558700609     
 soft         electrons   0.0000000000000000     
 augmentation electrons   280.02615558700609     
 soft         electrons   0.0000000000000000     
 augmentation electrons   280.02615558700609     
 soft         electrons   0.0000000000000000     
 augmentation electrons   280.02615558700609     
 soft         electrons   0.0000000000000000     
 total        electrons   280.02615558700609     
 total        electrons   280.02615558700609     
 total        electrons   280.02615558700609     
 total        electrons   280.02615558700609     
 total        electrons   280.02615558700609     
 total        electrons   280.02615558700609     
 total        electrons   280.02615558700609     
 total        electrons   280.02615558700609     
 total        electrons   280.02615558700609     
 total        electrons   280.02615558700609     
 total        electrons   280.02615558700609     
 total        electrons   280.02615558700609     
 total        electrons   280.02615558700609     
 total        electrons   280.02615558700609     
 total        electrons   280.02615558700609     
 total        electrons   280.02615558700609     
 total        electrons   280.02615558700609     
 total        electrons   280.02615558700609     
 total        electrons   280.02615558700609     
 total        electrons   280.02615558700609     
 total        electrons   280.02615558700609     
 total        electrons   280.02615558700609     
 total        electrons   280.02615558700609     
 total        electrons   280.02615558700609     
 total        electrons   280.02615558700609     
 augmentation electrons   280.02615558700609     
 soft         electrons   0.0000000000000000     
 total        electrons   280.02615558700609     
 total        electrons   280.02615558700609     
 total        electrons   280.02615558700609     
 total        electrons   280.02615558700609     
 total        electrons   280.02615558700609     
 total        electrons   280.02615558700609     
 total        electrons   280.02615558700609     
 total        electrons   280.02615558700609     
 total        electrons   280.02615558700609     
 total        electrons   280.02615558700609     
 total        electrons   280.02615558700609     
 total        electrons   280.02615558700609     
 total        electrons   280.02615558700609     
 total        electrons   280.02615558700609     
 total        electrons   280.02615558700609     
 total        electrons   280.02615558700609     
 total        electrons   280.02615558700609     
 total        electrons   280.02615558700609     
 total        electrons   280.02615558700609     
 total        electrons   280.02615558700609     
 total        electrons   280.02615558700609     
 total        electrons   280.02615558700609     
 total        electrons   280.02615558700609     
 total        electrons   280.02615558700609     
 total        electrons   280.02615558700609     
 total        electrons   280.02615558700609     
 total        electrons   280.02615558700609     
 total        electrons   280.02615558700609     
 total        electrons   280.02615558700609     
 total        electrons   280.02615558700609     
 total        electrons   280.02615558700609     
 total        electrons   280.02615558700609     
 total        electrons   280.02615558700609     
 total        electrons   280.02615558700609     
 total        electrons   280.02615558700609     
 total        electrons   280.02615558700609     
 total        electrons   280.02615558700609     
 total        electrons   280.02615558700609     
 total        electrons   280.02615558700609     
 total        electrons   280.02615558700609     
 total        electrons   280.02615558700609     
 total        electrons   280.02615558700609     
 total        electrons   280.02615558700609     
 total        electrons   280.02615558700609     
 total        electrons   280.02615558700609     
 total        electrons   280.02615558700609     
 total        electrons   280.02615558700609     
 augmentation electrons   864.17172981569820     
 soft         electrons   0.0000000000000000     
 total        electrons   864.17172981569820     
 augmentation electrons   864.17172981569820     
 soft         electrons   0.0000000000000000     
 total        electrons   864.17172981569820     
 augmentation electrons   864.17172981569820     
 soft         electrons   0.0000000000000000     
 total        electrons   864.17172981569820     
 augmentation electrons   864.17172981569820     
 soft         electrons   0.0000000000000000     
 total        electrons   864.17172981569820     
 augmentation electrons   864.17172981569820     
 soft         electrons   0.0000000000000000     
 total        electrons   864.17172981569820     
 augmentation electrons   864.17172981569820     
 soft         electrons   0.0000000000000000     
 total        electrons   864.17172981569820     
 augmentation electrons   864.17172981569820     
 soft         electrons   0.0000000000000000     
 total        electrons   864.17172981569820     
 augmentation electrons   864.17172981569820     
 soft         electrons   0.0000000000000000     
 total        electrons   864.17172981569820     
 augmentation electrons   864.17172981569820     
 soft         electrons   0.0000000000000000     
 augmentation electrons   864.17172981569820     
 soft         electrons   0.0000000000000000     
 total        electrons   864.17172981569820     
 augmentation electrons   864.17172981569820     
 soft         electrons   0.0000000000000000     
 total        electrons   864.17172981569820     
 augmentation electrons   864.17172981569820     
 soft         electrons   0.0000000000000000     
 total        electrons   864.17172981569820     
 augmentation electrons   864.17172981569820     
 soft         electrons   0.0000000000000000     
 total        electrons   864.17172981569820     
 augmentation electrons   864.17172981569820     
 soft         electrons   0.0000000000000000     
 total        electrons   864.17172981569820     
 augmentation electrons   864.17172981569820     
 soft         electrons   0.0000000000000000     
 total        electrons   864.17172981569820     
 augmentation electrons   864.17172981569820     
 soft         electrons   0.0000000000000000     
 total        electrons   864.17172981569820     
 augmentation electrons   864.17172981569820     
 soft         electrons   0.0000000000000000     
 total        electrons   864.17172981569820     
 augmentation electrons   864.17172981569820     
 soft         electrons   0.0000000000000000     
 total        electrons   864.17172981569820     
 augmentation electrons   864.17172981569820     
 soft         electrons   0.0000000000000000     
 augmentation electrons   864.17172981569820     
 soft         electrons   0.0000000000000000     
 total        electrons   864.17172981569820     
 augmentation electrons   864.17172981569820     
 soft         electrons   0.0000000000000000     
 total        electrons   864.17172981569820     
 augmentation electrons   864.17172981569820     
 soft         electrons   0.0000000000000000     
 augmentation electrons   864.17172981569820     
 soft         electrons   0.0000000000000000     
 total        electrons   864.17172981569820     
 augmentation electrons   864.17172981569820     
 soft         electrons   0.0000000000000000     
 total        electrons   864.17172981569820     
 augmentation electrons   864.17172981569820     
 soft         electrons   0.0000000000000000     
 total        electrons   864.17172981569820     
 augmentation electrons   864.17172981569820     
 soft         electrons   0.0000000000000000     
 augmentation electrons   864.17172981569820     
 soft         electrons   0.0000000000000000     
 total        electrons   864.17172981569820     
 augmentation electrons   864.17172981569820     
 soft         electrons   0.0000000000000000     
 augmentation electrons   864.17172981569820     
 soft         electrons   0.0000000000000000     
 total        electrons   864.17172981569820     
 augmentation electrons   864.17172981569820     
 soft         electrons   0.0000000000000000     
 augmentation electrons   864.17172981569820     
 soft         electrons   0.0000000000000000     
 total        electrons   864.17172981569820     
 augmentation electrons   864.17172981569820     
 soft         electrons   0.0000000000000000     
 augmentation electrons   864.17172981569820     
 soft         electrons   0.0000000000000000     
 total        electrons   864.17172981569820     
 augmentation electrons   864.17172981569820     
 soft         electrons   0.0000000000000000     
 augmentation electrons   864.17172981569820     
 soft         electrons   0.0000000000000000     
 total        electrons   864.17172981569820     
 augmentation electrons   864.17172981569820     
 soft         electrons   0.0000000000000000     
 total        electrons   864.17172981569820     
 augmentation electrons   864.17172981569820     
 soft         electrons   0.0000000000000000     
 total        electrons   864.17172981569820     
 augmentation electrons   864.17172981569820     
 soft         electrons   0.0000000000000000     
 augmentation electrons   864.17172981569820     
 soft         electrons   0.0000000000000000     
 augmentation electrons   864.17172981569820     
 soft         electrons   0.0000000000000000     
 augmentation electrons   864.17172981569820     
 soft         electrons   0.0000000000000000     
 total        electrons   864.17172981569820     
 augmentation electrons   864.17172981569820     
 soft         electrons   0.0000000000000000     
 total        electrons   864.17172981569820     
 augmentation electrons   864.17172981569820     
 soft         electrons   0.0000000000000000     
 total        electrons   864.17172981569820     
 augmentation electrons   864.17172981569820     
 soft         electrons   0.0000000000000000     
 total        electrons   864.17172981569820     
 augmentation electrons   864.17172981569820     
 soft         electrons   0.0000000000000000     
 total        electrons   864.17172981569820     
 augmentation electrons   864.17172981569820     
 soft         electrons   0.0000000000000000     
 total        electrons   864.17172981569820     
 augmentation electrons   864.17172981569820     
 soft         electrons   0.0000000000000000     
 total        electrons   864.17172981569820     
 augmentation electrons   864.17172981569820     
 soft         electrons   0.0000000000000000     
 total        electrons   864.17172981569820     
 augmentation electrons   864.17172981569820     
 soft         electrons   0.0000000000000000     
 total        electrons   864.17172981569820     
 augmentation electrons   864.17172981569820     
 soft         electrons   0.0000000000000000     
 total        electrons   864.17172981569820     
 augmentation electrons   864.17172981569820     
 soft         electrons   0.0000000000000000     
 total        electrons   864.17172981569820     
 augmentation electrons   864.17172981569820     
 soft         electrons   0.0000000000000000     
 total        electrons   864.17172981569820     
 augmentation electrons   864.17172981569820     
 soft         electrons   0.0000000000000000     
 total        electrons   864.17172981569820     
 augmentation electrons   864.17172981569820     
 soft         electrons   0.0000000000000000     
 total        electrons   864.17172981569820     
 augmentation electrons   864.17172981569820     
 soft         electrons   0.0000000000000000     
 augmentation electrons   864.17172981569820     
 soft         electrons   0.0000000000000000     
 total        electrons   864.17172981569820     
 augmentation electrons   864.17172981569820     
 soft         electrons   0.0000000000000000     
 total        electrons   864.17172981569820     
 augmentation electrons   864.17172981569820     
 soft         electrons   0.0000000000000000     
 total        electrons   864.17172981569820     
 augmentation electrons   864.17172981569820     
 soft         electrons   0.0000000000000000     
 total        electrons   864.17172981569820     
 augmentation electrons   864.17172981569820     
 soft         electrons   0.0000000000000000     
 augmentation electrons   864.17172981569820     
 soft         electrons   0.0000000000000000     
 augmentation electrons   864.17172981569820     
 soft         electrons   0.0000000000000000     
 augmentation electrons   864.17172981569820     
 soft         electrons   0.0000000000000000     
 augmentation electrons   864.17172981569820     
 soft         electrons   0.0000000000000000     
 augmentation electrons   864.17172981569820     
 soft         electrons   0.0000000000000000     
 total        electrons   864.17172981569820     
 augmentation electrons   864.17172981569820     
 soft         electrons   0.0000000000000000     
 total        electrons   864.17172981569820     
 augmentation electrons   864.17172981569820     
 soft         electrons   0.0000000000000000     
 total        electrons   864.17172981569820     
 augmentation electrons   864.17172981569820     
 soft         electrons   0.0000000000000000     
 total        electrons   864.17172981569820     
 augmentation electrons   864.17172981569820     
 soft         electrons   0.0000000000000000     
 total        electrons   864.17172981569820     
 augmentation electrons   864.17172981569820     
 soft         electrons   0.0000000000000000     
 total        electrons   864.17172981569820     
 augmentation electrons   864.17172981569820     
 soft         electrons   0.0000000000000000     
 augmentation electrons   864.17172981569820     
 soft         electrons   0.0000000000000000     
 total        electrons   864.17172981569820     
 total        electrons   864.17172981569820     
 total        electrons   864.17172981569820     
 total        electrons   864.17172981569820     
 total        electrons   864.17172981569820     
 total        electrons   864.17172981569820     
 total        electrons   864.17172981569820     
 total        electrons   864.17172981569820     
 total        electrons   864.17172981569820     
 total        electrons   864.17172981569820     
 total        electrons   864.17172981569820     
 total        electrons   864.17172981569820     
 total        electrons   864.17172981569820     
 total        electrons   864.17172981569820     
 total        electrons   864.17172981569820     
 total        electrons   864.17172981569820     
 total        electrons   864.17172981569820     
 total        electrons   864.17172981569820     
 total        electrons   864.17172981569820     
 entering main loop
       N       E                     dE             d eps       ncg     rms          rms(c)
DAV:   1     0.306322614893E+04    0.30632E+04   -0.96483E+04  5400   0.131E+03
DAV:   2     0.590182302335E+02   -0.30042E+04   -0.27920E+04  5820   0.340E+02
DAV:   3    -0.641276658580E+03   -0.70029E+03   -0.67548E+03  7956   0.196E+02
DAV:   4    -0.705861949392E+03   -0.64585E+02   -0.62113E+02  8868   0.665E+01
DAV:   5    -0.709410530163E+03   -0.35486E+01   -0.33770E+01  9084   0.156E+01    0.144E+02
RMM:   6    -0.649482627241E+03    0.59928E+02   -0.14000E+03  6249   0.115E+02    0.704E+01
RMM:   7    -0.693937922574E+03   -0.44455E+02   -0.79919E+02  6492   0.100E+02    0.534E+01
RMM:   8    -0.622409558113E+03    0.71528E+02   -0.11632E+02  5730   0.392E+01    0.330E+01
RMM:   9    -0.607344875892E+03    0.15065E+02   -0.52534E+01  5699   0.256E+01    0.264E+01
RMM:  10    -0.591712147244E+03    0.15633E+02   -0.29717E+01  6784   0.134E+01    0.180E+01
RMM:  11    -0.590619929066E+03    0.10922E+01   -0.67786E+00  6164   0.713E+00    0.154E+01
RMM:  12    -0.590811189190E+03   -0.19126E+00   -0.26597E+00  7128   0.323E+00    0.139E+01
RMM:  13    -0.590136405125E+03    0.67478E+00   -0.14697E+00  6063   0.389E+00    0.109E+01
RMM:  14    -0.589911023445E+03    0.22538E+00   -0.43398E+00  6179   0.579E+00    0.859E+00
RMM:  15    -0.589304479670E+03    0.60654E+00   -0.30683E+00  5547   0.578E+00    0.389E+00
RMM:  16    -0.589269715833E+03    0.34764E-01   -0.89833E-01  6486   0.239E+00    0.251E+00
RMM:  17    -0.589262832089E+03    0.68837E-02   -0.40172E-01  5840   0.161E+00    0.236E+00
RMM:  18    -0.589222013051E+03    0.40819E-01   -0.18926E-01  5958   0.121E+00    0.152E+00
RMM:  19    -0.589209847026E+03    0.12166E-01   -0.13262E-01  5681   0.101E+00    0.117E+00
RMM:  20    -0.589196105704E+03    0.13741E-01   -0.92779E-02  6974   0.607E-01    0.614E-01
RMM:  21    -0.589195619496E+03    0.48621E-03   -0.30634E-02  6304   0.401E-01    0.620E-01
RMM:  22    -0.589194196971E+03    0.14225E-02   -0.11324E-02  6169   0.277E-01    0.456E-01
RMM:  23    -0.589194044826E+03    0.15215E-03   -0.64102E-03  6793   0.173E-01    0.176E-01
RMM:  24    -0.589195454297E+03   -0.14095E-02   -0.51398E-03  7191   0.146E-01    0.154E-01
RMM:  25    -0.589196055287E+03   -0.60099E-03   -0.12206E-03  6662   0.838E-02    0.139E-01
RMM:  26    -0.589196390817E+03   -0.33553E-03   -0.51188E-04  5842   0.668E-02    0.100E-01
RMM:  27    -0.589198180382E+03   -0.17896E-02   -0.20765E-03  6851   0.106E-01    0.111E-01
RMM:  28    -0.589198719475E+03   -0.53909E-03   -0.54256E-04  5617   0.698E-02    0.544E-02
RMM:  29    -0.589199002150E+03   -0.28268E-03   -0.34931E-04  7015   0.360E-02    0.447E-02
RMM:  30    -0.589199231230E+03   -0.22908E-03   -0.10106E-04  5900   0.270E-02    0.174E-02
RMM:  31    -0.589199388270E+03   -0.15704E-03   -0.11737E-04  6902   0.215E-02    0.209E-02
RMM:  32    -0.589199564265E+03   -0.17600E-03   -0.29345E-05  5038   0.156E-02    0.924E-03
RMM:  33    -0.589199668123E+03   -0.10386E-03   -0.37108E-05  5759   0.897E-03    0.879E-03
RMM:  34    -0.589199779142E+03   -0.11102E-03   -0.10699E-05  4395   0.880E-03    0.986E-03
RMM:  35    -0.589199917950E+03   -0.13881E-03   -0.12733E-05  4901   0.787E-03    0.519E-03
RMM:  36    -0.589200008177E+03   -0.90227E-04   -0.67256E-06  4050   0.528E-03    0.400E-03
RMM:  37    -0.589200050395E+03   -0.42218E-04   -0.31589E-06  3705   0.370E-03    0.242E-03
RMM:  38    -0.589200083480E+03   -0.33085E-04   -0.30795E-06  3691   0.422E-03    0.496E-03
RMM:  39    -0.589200104956E+03   -0.21477E-04   -0.36855E-06  3908   0.655E-03    0.306E-03
RMM:  40    -0.589200115394E+03   -0.10438E-04   -0.12993E-06  3383   0.267E-03    0.964E-04
RMM:  41    -0.589200118358E+03   -0.29643E-05   -0.40138E-07  2498   0.160E-03    0.725E-04
RMM:  42    -0.589200120964E+03   -0.26061E-05   -0.32906E-07  2514   0.138E-03    0.619E-04
RMM:  43    -0.589200123153E+03   -0.21881E-05   -0.26739E-07  2333   0.111E-03    0.226E-04
RMM:  44    -0.589200123774E+03   -0.62166E-06   -0.15558E-07  2192   0.103E-03
   1 F= -.58920012E+03 E0= -.58920278E+03  d E =-.589200E+03
 curvature:   0.00 expect dE= 0.000E+00 dE for cont linesearch  0.000E+00
 trial: gam= 0.00000 g(F)=  0.952E-02 g(S)=  0.000E+00 ort = 0.000E+00 (trialstep = 0.100E+01)
 search vector abs. value=  0.952E-02
 bond charge predicted
       N       E                     dE             d eps       ncg     rms          rms(c)
DAV:   1    -0.589208124524E+03   -0.80014E-02   -0.14401E-01  6048   0.709E-01    0.159E-01
RMM:   2    -0.589208685052E+03   -0.56053E-03   -0.49143E-03  5966   0.220E-01    0.203E-01
RMM:   3    -0.589208409634E+03    0.27542E-03   -0.15263E-03  6006   0.127E-01    0.155E-01
RMM:   4    -0.589208673059E+03   -0.26343E-03   -0.11789E-03  5964   0.969E-02    0.204E-01
RMM:   5    -0.589208512236E+03    0.16082E-03   -0.10119E-03  6025   0.950E-02    0.146E-01
RMM:   6    -0.589208230512E+03    0.28172E-03   -0.50609E-04  5501   0.805E-02    0.704E-02
RMM:   7    -0.589208190471E+03    0.40041E-04   -0.21134E-04  5788   0.488E-02    0.431E-02
RMM:   8    -0.589208177096E+03    0.13375E-04   -0.83279E-05  5888   0.276E-02    0.222E-02
RMM:   9    -0.589208174770E+03    0.23264E-05   -0.37877E-05  5128   0.162E-02    0.143E-02
RMM:  10    -0.589208172976E+03    0.17938E-05   -0.12185E-05  4288   0.902E-03    0.722E-03
RMM:  11    -0.589208172834E+03    0.14222E-06   -0.41546E-06  3794   0.549E-03
   2 F= -.58920817E+03 E0= -.58921090E+03  d E =-.804906E-02
 trial-energy change:   -0.008049  1 .order   -0.008061   -0.009515   -0.006607
 step:   3.2724(harm=  3.2724)  dis= 0.04208  next Energy=  -589.215693 (dE=-0.156E-01)
 bond charge predicted
       N       E                     dE             d eps       ncg     rms          rms(c)
DAV:   1    -0.589216159487E+03   -0.79865E-02   -0.73952E-01  5844   0.161E+00    0.348E-01
RMM:   2    -0.589218879790E+03   -0.27203E-02   -0.24883E-02  5851   0.510E-01    0.466E-01
RMM:   3    -0.589216868424E+03    0.20114E-02   -0.75630E-03  5818   0.301E-01    0.267E-01
RMM:   4    -0.589218324237E+03   -0.14558E-02   -0.56635E-03  5847   0.230E-01    0.404E-01
RMM:   5    -0.589219235392E+03   -0.91115E-03   -0.41009E-03  6047   0.199E-01    0.432E-01
RMM:   6    -0.589216713596E+03    0.25218E-02   -0.22414E-03  5719   0.158E-01    0.174E-01
RMM:   7    -0.589216435899E+03    0.27770E-03   -0.11486E-03  5680   0.113E-01    0.102E-01
RMM:   8    -0.589216357646E+03    0.78252E-04   -0.44553E-04  6065   0.640E-02    0.526E-02
RMM:   9    -0.589216342976E+03    0.14670E-04   -0.19265E-04  5752   0.379E-02    0.335E-02
RMM:  10    -0.589216332685E+03    0.10291E-04   -0.63942E-05  5526   0.198E-02    0.160E-02
RMM:  11    -0.589216332149E+03    0.53614E-06   -0.24298E-05  5227   0.111E-02    0.969E-03
RMM:  12    -0.589216332719E+03   -0.56958E-06   -0.15406E-05  5146   0.915E-03    0.954E-03
RMM:  13    -0.589216332139E+03    0.57932E-06   -0.43191E-06  3823   0.703E-03
   3 F= -.58921633E+03 E0= -.58921919E+03  d E =-.162084E-01
 curvature:  -1.64 expect dE=-0.859E-03 dE for cont linesearch -0.894E-04
 ZBRENT: extrapolating
 opt :   3.5507  next Energy=  -589.216432 (dE=-0.163E-01)
 bond charge predicted
       N       E                     dE             d eps       ncg     rms          rms(c)
DAV:   1    -0.589216437848E+03   -0.10513E-03   -0.11077E-02  6132   0.196E-01    0.424E-02
RMM:   2    -0.589216478149E+03   -0.40302E-04   -0.40337E-04  5752   0.670E-02    0.572E-02
RMM:   3    -0.589216449203E+03    0.28946E-04   -0.12082E-04  5706   0.382E-02    0.317E-02
RMM:   4    -0.589216475093E+03   -0.25889E-04   -0.72013E-05  6148   0.236E-02    0.475E-02
RMM:   5    -0.589216478725E+03   -0.36319E-05   -0.59252E-05  5887   0.220E-02    0.521E-02
RMM:   6    -0.589216445143E+03    0.33582E-04   -0.39088E-05  5301   0.227E-02    0.195E-02
RMM:   7    -0.589216442842E+03    0.23014E-05   -0.18015E-05  4916   0.137E-02    0.130E-02
RMM:   8    -0.589216441741E+03    0.11001E-05   -0.64903E-06  4092   0.863E-03    0.706E-03
RMM:   9    -0.589216441513E+03    0.22854E-06   -0.29601E-06  3619   0.608E-03
   4 F= -.58921644E+03 E0= -.58921933E+03  d E =-.163177E-01
 curvature:  -1.84 expect dE=-0.100E-02 dE for cont linesearch -0.781E-06
 trial: gam= 0.05057 g(F)=  0.545E-03 g(S)=  0.000E+00 ort = 0.636E-04 (trialstep = 0.151E+01)
 search vector abs. value=  0.576E-03
 bond charge predicted
       N       E                     dE             d eps       ncg     rms          rms(c)
DAV:   1    -0.589217167150E+03   -0.72541E-03   -0.19330E-02  5892   0.261E-01    0.380E-02
RMM:   2    -0.589217266563E+03   -0.99414E-04   -0.65896E-04  5495   0.893E-02    0.873E-02
RMM:   3    -0.589217207202E+03    0.59361E-04   -0.13895E-04  5898   0.424E-02    0.387E-02
RMM:   4    -0.589217203313E+03    0.38896E-05   -0.51758E-05  6233   0.162E-02    0.379E-02
RMM:   5    -0.589217198375E+03    0.49379E-05   -0.44501E-05  5421   0.219E-02    0.310E-02
RMM:   6    -0.589217194280E+03    0.40946E-05   -0.33151E-05  5192   0.198E-02    0.244E-02
RMM:   7    -0.589217188791E+03    0.54894E-05   -0.18011E-05  4792   0.163E-02    0.123E-02
RMM:   8    -0.589217188316E+03    0.47529E-06   -0.64915E-06  4128   0.955E-03
   5 F= -.58921719E+03 E0= -.58922005E+03  d E =-.746803E-03
 ZBRENT: can't locate minimum, use default step
 trial-energy change:   -0.000747  1 .order   -0.000745   -0.000828   -0.000662
 step:   6.0406(harm=  7.5334)  dis= 0.01493  next Energy=  -589.218506 (dE=-0.206E-02)
 bond charge predicted
       N       E                     dE             d eps       ncg     rms          rms(c)
DAV:   1    -0.589218234464E+03   -0.10457E-02   -0.17435E-01  5676   0.784E-01    0.117E-01
RMM:   2    -0.589219221071E+03   -0.98661E-03   -0.62463E-03  5527   0.272E-01    0.277E-01
RMM:   3    -0.589218624852E+03    0.59622E-03   -0.12976E-03  5980   0.130E-01    0.126E-01
RMM:   4    -0.589218528565E+03    0.96287E-04   -0.47812E-04  6662   0.517E-02    0.109E-01
RMM:   5    -0.589218509259E+03    0.19305E-04   -0.42186E-04  5667   0.666E-02    0.966E-02
RMM:   6    -0.589218456190E+03    0.53069E-04   -0.29552E-04  5507   0.596E-02    0.698E-02
RMM:   7    -0.589218416822E+03    0.39368E-04   -0.17671E-04  5467   0.488E-02    0.419E-02
RMM:   8    -0.589218406093E+03    0.10729E-04   -0.67780E-05  5596   0.288E-02    0.251E-02
RMM:   9    -0.589218399426E+03    0.66662E-05   -0.24311E-05  4959   0.169E-02    0.122E-02
RMM:  10    -0.589218398306E+03    0.11207E-05   -0.10333E-05  4132   0.873E-03    0.632E-03
RMM:  11    -0.589218398284E+03    0.21684E-07   -0.34472E-06  3744   0.475E-03
   6 F= -.58921840E+03 E0= -.58922121E+03  d E =-.195677E-02
 curvature:  -3.71 expect dE=-0.121E-03 dE for cont linesearch -0.528E-04
 trial: gam=-0.10546 g(F)=  0.327E-04 g(S)=  0.000E+00 ort = 0.905E-04 (trialstep = 0.242E+01)
 search vector abs. value=  0.200E-04
 reached required accuracy - stopping structural energy minimisation
 augmentation electrons   35.688157057298689     
 soft         electrons   244.40823277688685     
 augmentation electrons   35.688157057298689     
 soft         electrons   244.40823277688685     
 augmentation electrons   35.688157057298689     
 soft         electrons   244.40823277688685     
 augmentation electrons   35.688157057298689     
 soft         electrons   244.40823277688685     
 augmentation electrons   35.688157057298689     
 soft         electrons   244.40823277688685     
 augmentation electrons   35.688157057298689     
 soft         electrons   244.40823277688685     
 augmentation electrons   35.688157057298689     
 soft         electrons   244.40823277688685     
 augmentation electrons   35.688157057298689     
 soft         electrons   244.40823277688685     
 augmentation electrons   35.688157057298689     
 soft         electrons   244.40823277688685     
 augmentation electrons   35.688157057298689     
 soft         electrons   244.40823277688685     
 augmentation electrons   35.688157057298689     
 soft         electrons   244.40823277688685     
 augmentation electrons   35.688157057298689     
 soft         electrons   244.40823277688685     
 augmentation electrons   35.688157057298689     
 soft         electrons   244.40823277688685     
 augmentation electrons   35.688157057298689     
 soft         electrons   244.40823277688685     
 augmentation electrons   35.688157057298689     
 soft         electrons   244.40823277688685     
 augmentation electrons   35.688157057298689     
 soft         electrons   244.40823277688685     
 augmentation electrons   35.688157057298689     
 soft         electrons   244.40823277688685     
 augmentation electrons   35.688157057298689     
 soft         electrons   244.40823277688685     
 augmentation electrons   35.688157057298689     
 soft         electrons   244.40823277688685     
 augmentation electrons   35.688157057298689     
 soft         electrons   244.40823277688685     
 augmentation electrons   35.688157057298689     
 soft         electrons   244.40823277688685     
 augmentation electrons   35.688157057298689     
 soft         electrons   244.40823277688685     
 augmentation electrons   35.688157057298689     
 soft         electrons   244.40823277688685     
 augmentation electrons   35.688157057298689     
 soft         electrons   244.40823277688685     
 augmentation electrons   35.688157057298689     
 soft         electrons   244.40823277688685     
 augmentation electrons   35.688157057298689     
 soft         electrons   244.40823277688685     
 augmentation electrons   35.688157057298689     
 soft         electrons   244.40823277688685     
 augmentation electrons   35.688157057298689     
 soft         electrons   244.40823277688685     
 augmentation electrons   35.688157057298689     
 soft         electrons   244.40823277688685     
 augmentation electrons   35.688157057298689     
 soft         electrons   244.40823277688685     
 augmentation electrons   35.688157057298689     
 soft         electrons   244.40823277688685     
 augmentation electrons   35.688157057298689     
 soft         electrons   244.40823277688685     
 augmentation electrons   35.688157057298689     
 soft         electrons   244.40823277688685     
 augmentation electrons   35.688157057298689     
 soft         electrons   244.40823277688685     
 augmentation electrons   35.688157057298689     
 soft         electrons   244.40823277688685     
 augmentation electrons   35.688157057298689     
 soft         electrons   244.40823277688685     
 augmentation electrons   35.688157057298689     
 soft         electrons   244.40823277688685     
 augmentation electrons   35.688157057298689     
 soft         electrons   244.40823277688685     
 augmentation electrons   35.688157057298689     
 soft         electrons   244.40823277688685     
 augmentation electrons   35.688157057298689     
 soft         electrons   244.40823277688685     
 augmentation electrons   35.688157057298689     
 soft         electrons   244.40823277688685     
 augmentation electrons   35.688157057298689     
 soft         electrons   244.40823277688685     
 augmentation electrons   35.688157057298689     
 soft         electrons   244.40823277688685     
 augmentation electrons   35.688157057298689     
 soft         electrons   244.40823277688685     
 augmentation electrons   35.688157057298689     
 soft         electrons   244.40823277688685     
 augmentation electrons   35.688157057298689     
 soft         electrons   244.40823277688685     
 augmentation electrons   35.688157057298689     
 soft         electrons   244.40823277688685     
 augmentation electrons   35.688157057298689     
 soft         electrons   244.40823277688685     
 augmentation electrons   35.688157057298689     
 soft         electrons   244.40823277688685     
 augmentation electrons   35.688157057298689     
 soft         electrons   244.40823277688685     
 augmentation electrons   35.688157057298689     
 soft         electrons   244.40823277688685     
 augmentation electrons   35.688157057298689     
 soft         electrons   244.40823277688685     
 augmentation electrons   35.688157057298689     
 soft         electrons   244.40823277688685     
 augmentation electrons   35.688157057298689     
 soft         electrons   244.40823277688685     
 augmentation electrons   35.688157057298689     
 soft         electrons   244.40823277688685     
 augmentation electrons   35.688157057298689     
 soft         electrons   244.40823277688685     
 augmentation electrons   35.688157057298689     
 soft         electrons   244.40823277688685     
 augmentation electrons   35.688157057298689     
 soft         electrons   244.40823277688685     
 augmentation electrons   35.688157057298689     
 soft         electrons   244.40823277688685     
 augmentation electrons   35.688157057298689     
 soft         electrons   244.40823277688685     
 augmentation electrons   35.688157057298689     
 soft         electrons   244.40823277688685     
 augmentation electrons   35.688157057298689     
 soft         electrons   244.40823277688685     
 augmentation electrons   35.688157057298689     
 soft         electrons   244.40823277688685     
 augmentation electrons   35.688157057298689     
 augmentation electrons   35.688157057298689     
 soft         electrons   244.40823277688685     
 augmentation electrons   35.688157057298689     
 soft         electrons   244.40823277688685     
 augmentation electrons   35.688157057298689     
 soft         electrons   244.40823277688685     
 augmentation electrons   35.688157057298689     
 soft         electrons   244.40823277688685     
 augmentation electrons   35.688157057298689     
 soft         electrons   244.40823277688685     
 augmentation electrons   35.688157057298689     
 soft         electrons   244.40823277688685     
 augmentation electrons   35.688157057298689     
 soft         electrons   244.40823277688685     
 augmentation electrons   35.688157057298689     
 soft         electrons   244.40823277688685     
 soft         electrons   244.40823277688685     
 total        electrons   280.09638983418552     
 total        electrons   280.09638983418552     
 total        electrons   280.09638983418552     
 total        electrons   280.09638983418552     
 total        electrons   280.09638983418552     
 total        electrons   280.09638983418552     
 total        electrons   280.09638983418552     
 total        electrons   280.09638983418552     
 total        electrons   280.09638983418552     
 total        electrons   280.09638983418552     
 total        electrons   280.09638983418552     
 total        electrons   280.09638983418552     
 total        electrons   280.09638983418552     
 total        electrons   280.09638983418552     
 total        electrons   280.09638983418552     
 total        electrons   280.09638983418552     
 total        electrons   280.09638983418552     
 total        electrons   280.09638983418552     
 total        electrons   280.09638983418552     
 total        electrons   280.09638983418552     
 total        electrons   280.09638983418552     
 total        electrons   280.09638983418552     
 total        electrons   280.09638983418552     
 total        electrons   280.09638983418552     
 total        electrons   280.09638983418552     
 total        electrons   280.09638983418552     
 total        electrons   280.09638983418552     
 total        electrons   280.09638983418552     
 total        electrons   280.09638983418552     
 total        electrons   280.09638983418552     
 total        electrons   280.09638983418552     
 total        electrons   280.09638983418552     
 total        electrons   280.09638983418552     
 total        electrons   280.09638983418552     
 total        electrons   280.09638983418552     
 total        electrons   280.09638983418552     
 total        electrons   280.09638983418552     
 total        electrons   280.09638983418552     
 total        electrons   280.09638983418552     
 total        electrons   280.09638983418552     
 total        electrons   280.09638983418552     
 total        electrons   280.09638983418552     
 total        electrons   280.09638983418552     
 total        electrons   280.09638983418552     
 total        electrons   280.09638983418552     
 total        electrons   280.09638983418552     
 total        electrons   280.09638983418552     
 total        electrons   280.09638983418552     
 total        electrons   280.09638983418552     
 total        electrons   280.09638983418552     
 total        electrons   280.09638983418552     
 total        electrons   280.09638983418552     
 total        electrons   280.09638983418552     
 total        electrons   280.09638983418552     
 total        electrons   280.09638983418552     
 total        electrons   280.09638983418552     
 total        electrons   280.09638983418552     
 total        electrons   280.09638983418552     
 total        electrons   280.09638983418552     
 total        electrons   280.09638983418552     
 total        electrons   280.09638983418552     
 total        electrons   280.09638983418552     
 total        electrons   280.09638983418552     
 total        electrons   280.09638983418552     
 total        electrons   280.09638983418552     
 total        electrons   280.09638983418552     
 total        electrons   280.09638983418552     
 total        electrons   280.09638983418552     
 total        electrons   280.09638983418552     
 total        electrons   280.09638983418552     
 total        electrons   280.09638983418552     
 total        electrons   280.09638983418552     
Note: The following floating-point exceptions are signalling: IEEE_OVERFLOW_FLAG
Note: The following floating-point exceptions are signalling: IEEE_OVERFLOW_FLAG
Note: The following floating-point exceptions are signalling: IEEE_OVERFLOW_FLAG
Note: The following floating-point exceptions are signalling: IEEE_OVERFLOW_FLAG
Note: The following floating-point exceptions are signalling: IEEE_OVERFLOW_FLAG
Note: The following floating-point exceptions are signalling: IEEE_OVERFLOW_FLAG
Note: The following floating-point exceptions are signalling: IEEE_OVERFLOW_FLAG
Note: The following floating-point exceptions are signalling: IEEE_OVERFLOW_FLAG
Note: The following floating-point exceptions are signalling: IEEE_OVERFLOW_FLAG
Note: The following floating-point exceptions are signalling: IEEE_OVERFLOW_FLAG
Note: The following floating-point exceptions are signalling: IEEE_OVERFLOW_FLAG
Note: The following floating-point exceptions are signalling: IEEE_OVERFLOW_FLAG
Note: The following floating-point exceptions are signalling: IEEE_OVERFLOW_FLAG
Note: The following floating-point exceptions are signalling: IEEE_OVERFLOW_FLAG
Note: The following floating-point exceptions are signalling: IEEE_OVERFLOW_FLAG
Note: The following floating-point exceptions are signalling: IEEE_OVERFLOW_FLAG
Note: The following floating-point exceptions are signalling: IEEE_OVERFLOW_FLAG
Note: The following floating-point exceptions are signalling: IEEE_OVERFLOW_FLAG
Note: The following floating-point exceptions are signalling: IEEE_OVERFLOW_FLAG
Note: The following floating-point exceptions are signalling: IEEE_OVERFLOW_FLAG
Note: The following floating-point exceptions are signalling: IEEE_OVERFLOW_FLAG
Note: The following floating-point exceptions are signalling: IEEE_OVERFLOW_FLAG
Note: The following floating-point exceptions are signalling: IEEE_OVERFLOW_FLAG
Note: The following floating-point exceptions are signalling: IEEE_OVERFLOW_FLAG
Note: The following floating-point exceptions are signalling: IEEE_OVERFLOW_FLAG
Note: The following floating-point exceptions are signalling: IEEE_OVERFLOW_FLAG
Note: The following floating-point exceptions are signalling: IEEE_OVERFLOW_FLAG
Note: The following floating-point exceptions are signalling: IEEE_OVERFLOW_FLAG
Note: The following floating-point exceptions are signalling: IEEE_OVERFLOW_FLAG
Note: The following floating-point exceptions are signalling: IEEE_OVERFLOW_FLAG
Note: The following floating-point exceptions are signalling: IEEE_OVERFLOW_FLAG
Note: The following floating-point exceptions are signalling: IEEE_OVERFLOW_FLAG
Note: The following floating-point exceptions are signalling: IEEE_OVERFLOW_FLAG
Note: The following floating-point exceptions are signalling: IEEE_OVERFLOW_FLAG
Note: The following floating-point exceptions are signalling: IEEE_OVERFLOW_FLAG
Note: The following floating-point exceptions are signalling: IEEE_OVERFLOW_FLAG
Note: The following floating-point exceptions are signalling: IEEE_OVERFLOW_FLAG
Note: The following floating-point exceptions are signalling: IEEE_OVERFLOW_FLAG
Note: The following floating-point exceptions are signalling: IEEE_OVERFLOW_FLAG
Note: The following floating-point exceptions are signalling: IEEE_OVERFLOW_FLAG
Note: The following floating-point exceptions are signalling: IEEE_OVERFLOW_FLAG
Note: The following floating-point exceptions are signalling: IEEE_OVERFLOW_FLAG
Note: The following floating-point exceptions are signalling: IEEE_OVERFLOW_FLAG
Note: The following floating-point exceptions are signalling: IEEE_OVERFLOW_FLAG
Note: The following floating-point exceptions are signalling: IEEE_OVERFLOW_FLAG
Note: The following floating-point exceptions are signalling: IEEE_OVERFLOW_FLAG
Note: The following floating-point exceptions are signalling: IEEE_OVERFLOW_FLAG
Note: The following floating-point exceptions are signalling: IEEE_OVERFLOW_FLAG
Note: The following floating-point exceptions are signalling: IEEE_OVERFLOW_FLAG
Note: The following floating-point exceptions are signalling: IEEE_OVERFLOW_FLAG
Note: The following floating-point exceptions are signalling: IEEE_OVERFLOW_FLAG
Note: The following floating-point exceptions are signalling: IEEE_OVERFLOW_FLAG
Note: The following floating-point exceptions are signalling: IEEE_OVERFLOW_FLAG
Note: The following floating-point exceptions are signalling: IEEE_OVERFLOW_FLAG
Note: The following floating-point exceptions are signalling: IEEE_OVERFLOW_FLAG
Note: The following floating-point exceptions are signalling: IEEE_OVERFLOW_FLAG
Note: The following floating-point exceptions are signalling: IEEE_OVERFLOW_FLAG
Note: The following floating-point exceptions are signalling: IEEE_OVERFLOW_FLAG
Note: The following floating-point exceptions are signalling: IEEE_OVERFLOW_FLAG
Note: The following floating-point exceptions are signalling: IEEE_OVERFLOW_FLAG
Note: The following floating-point exceptions are signalling: IEEE_OVERFLOW_FLAG
Note: The following floating-point exceptions are signalling: IEEE_OVERFLOW_FLAG
Note: The following floating-point exceptions are signalling: IEEE_OVERFLOW_FLAG
Note: The following floating-point exceptions are signalling: IEEE_OVERFLOW_FLAG
Note: The following floating-point exceptions are signalling: IEEE_OVERFLOW_FLAG
Note: The following floating-point exceptions are signalling: IEEE_OVERFLOW_FLAG
Note: The following floating-point exceptions are signalling: IEEE_OVERFLOW_FLAG
Note: The following floating-point exceptions are signalling: IEEE_OVERFLOW_FLAG
Note: The following floating-point exceptions are signalling: IEEE_OVERFLOW_FLAG
Note: The following floating-point exceptions are signalling: IEEE_OVERFLOW_FLAG
Note: The following floating-point exceptions are signalling: IEEE_OVERFLOW_FLAG
Note: The following floating-point exceptions are signalling: IEEE_OVERFLOW_FLAG
