   70   70    1    1
  0.2230945E+02  0.1053953E-08  0.6141200E-09  0.2412750E-08  0.5000000E-15
   1.0000000000000000E-004
  CAR 
 Name                                    
    265     23    168

  0.3742002E-15  0.3742002E-15  0.1262379E-14  0.2222222E-01
    1      -13.979160   1.000000
    2      -12.989329   1.000000
    3      -12.840201   1.000000
    4      -12.423189   1.000000
    5      -11.872739   1.000000
    6      -11.673111   1.000000
    7      -11.648564   1.000000
    8      -11.621837   1.000000
    9      -11.470656   1.000000
   10      -11.244595   1.000000
   11      -11.113621   1.000000
   12      -11.008592   1.000000
   13      -10.851290   1.000000
   14      -10.436702   1.000000
   15      -10.252030   1.000000
   16      -10.206614   1.000000
   17      -10.112514   1.000000
   18      -10.036558   1.000000
   19       -9.871437   1.000000
   20       -9.669235   1.000000
   21       -9.602288   1.000000
   22       -9.478513   1.000000
   23       -9.252456   1.000000
   24       -9.001168   1.000000
   25       -8.912728   1.000000
   26       -8.731891   1.000000
   27       -8.535951   1.000000
   28       -8.372143   1.000000
   29       -8.246251   1.000000
   30       -8.132810   1.000000
   31       -8.047641   1.000000
   32       -7.818932   1.000000
   33       -7.531710   1.000000
   34       -7.365054   1.000000
   35       -7.192617   1.000000
   36       -7.090691   1.000000
   37       -7.040027   1.000000
   38       -6.851410   1.000000
   39       -6.779924   1.000000
   40       -6.729832   1.000000
   41       -6.665608   1.000000
   42       -6.592636   1.000000
   43       -6.485917   1.000000
   44       -6.421770   1.000000
   45       -6.367088   1.000000
   46       -6.287107   1.000000
   47       -6.125764   1.000000
   48       -6.033584   1.000000
   49       -6.013090   1.000000
   50       -5.851535   1.000000
   51       -5.766713   1.000000
   52       -5.711616   1.000000
   53       -5.678852   1.000000
   54       -5.614348   1.000000
   55       -5.549175   1.000000
   56       -5.464835   1.000000
   57       -5.400101   1.000000
   58       -5.199120   1.000000
   59       -5.183382   1.000000
   60       -5.110957   1.000000
   61       -5.007999   1.000000
   62       -4.874306   1.000000
   63       -4.739227   1.000000
   64       -4.705193   1.000000
   65       -4.628364   1.000000
   66       -4.564535   1.000000
   67       -4.531949   1.000000
   68       -4.503550   1.000000
   69       -4.480359   1.000000
   70       -4.444536   1.000000
   71       -4.308675   1.000000
   72       -4.249675   1.000000
   73       -4.230027   1.000000
   74       -4.186586   1.000000
   75       -4.041374   1.000000
   76       -3.991139   1.000000
   77       -3.983548   1.000000
   78       -3.829167   1.000000
   79       -3.747657   1.000000
   80       -3.727266   1.000000
   81       -3.641478   1.000000
   82       -3.606796   1.000000
   83       -3.462130   1.000000
   84       -3.365717   1.000000
   85       -3.360080   1.000000
   86       -3.334871   1.000000
   87       -3.289753   1.000000
   88       -3.230097   1.000000
   89       -3.177794   1.000000
   90       -3.105028   1.000000
   91       -3.077967   1.000000
   92       -2.947343   1.000000
   93       -2.910699   1.000000
   94       -2.840401   1.000000
   95       -2.714046   1.000000
   96       -2.670188   1.000000
   97       -2.658336   1.000000
   98       -2.555244   1.000000
   99       -2.450730   1.000000
  100       -2.425120   1.000000
  101       -2.339239   1.000000
  102       -2.324021   1.000000
  103       -2.301705   1.000000
  104       -2.177095   1.000000
  105       -2.159643   1.000000
  106       -2.106408   1.000000
  107       -2.098585   1.000000
  108       -2.032171   1.000000
  109       -1.990083   1.000000
  110       -1.973992   1.000000
  111       -1.786032   1.000000
  112       -1.767513   1.000000
  113       -1.707040   1.000000
  114       -1.568274   1.000000
  115       -1.399362   1.000000
  116       -1.311579   1.000000
  117       -1.251780   1.000000
  118       -1.134205   1.000000
  119       -1.077858   1.000000
  120       -0.950084   1.000000
  121       -0.929087   1.000000
  122       -0.902463   1.000000
  123       -0.647812   1.000001
  124       -0.506331   1.000079
  125       -0.470451   1.000210
  126       -0.321460   1.005592
  127       -0.294065   1.008825
  128       -0.180719   1.031688
  129       -0.153787   1.035190
  130       -0.045998   0.969495
  131       -0.021402   0.922563
  132        0.001139   0.866237
  133        0.066071   0.640258
  134        0.185040   0.172901
  135        0.210658   0.101408
  136        0.244941   0.031377
  137        0.256192   0.014634
  138        0.315994  -0.031635
  139        0.370501  -0.033318
  140        0.421577  -0.022642
  141        0.583648  -0.001646
  142        0.663181  -0.000250
  143        0.707930  -0.000074
  144        0.767322  -0.000012
  145        0.834833  -0.000001
  146        0.930338  -0.000000
  147        0.992376  -0.000000
  148        1.049372  -0.000000
  149        1.108897  -0.000000
  150        1.159115  -0.000000
  151        1.174406  -0.000000
  152        1.210675  -0.000000
  153        1.259905  -0.000000
  154        1.270174  -0.000000
  155        1.307871  -0.000000
  156        1.347206  -0.000000
  157        1.371958  -0.000000
  158        1.412858  -0.000000
  159        1.473154  -0.000000
  160        1.519361  -0.000000
  161        1.581906  -0.000000
  162        1.601668  -0.000000
  163        1.634673  -0.000000
  164        1.750962  -0.000000
  165        2.029814  -0.000000
  166        2.058699  -0.000000
  167        2.516090  -0.000000
  168        2.596703  -0.000000

  0.2000000E+00  0.3742002E-15  0.1262379E-14  0.4444444E-01
    1      -13.938519   1.000000
    2      -13.232824   1.000000
    3      -12.710245   1.000000
    4      -12.196666   1.000000
    5      -11.993520   1.000000
    6      -11.861547   1.000000
    7      -11.688332   1.000000
    8      -11.441205   1.000000
    9      -11.280132   1.000000
   10      -11.251915   1.000000
   11      -11.078385   1.000000
   12      -10.929866   1.000000
   13      -10.842237   1.000000
   14      -10.597171   1.000000
   15      -10.500649   1.000000
   16      -10.337182   1.000000
   17      -10.215712   1.000000
   18      -10.047033   1.000000
   19       -9.733568   1.000000
   20       -9.655703   1.000000
   21       -9.448077   1.000000
   22       -9.427951   1.000000
   23       -9.300579   1.000000
   24       -9.043688   1.000000
   25       -8.958552   1.000000
   26       -8.725740   1.000000
   27       -8.331005   1.000000
   28       -8.251962   1.000000
   29       -8.105681   1.000000
   30       -8.080298   1.000000
   31       -8.024216   1.000000
   32       -7.982637   1.000000
   33       -7.491367   1.000000
   34       -7.412125   1.000000
   35       -7.356025   1.000000
   36       -7.168939   1.000000
   37       -7.107646   1.000000
   38       -6.958732   1.000000
   39       -6.825554   1.000000
   40       -6.743680   1.000000
   41       -6.663414   1.000000
   42       -6.599762   1.000000
   43       -6.524749   1.000000
   44       -6.429343   1.000000
   45       -6.349565   1.000000
   46       -6.242615   1.000000
   47       -6.065851   1.000000
   48       -6.008092   1.000000
   49       -5.933780   1.000000
   50       -5.870399   1.000000
   51       -5.784790   1.000000
   52       -5.724737   1.000000
   53       -5.651082   1.000000
   54       -5.526767   1.000000
   55       -5.475872   1.000000
   56       -5.380024   1.000000
   57       -5.355629   1.000000
   58       -5.302424   1.000000
   59       -5.174073   1.000000
   60       -5.141212   1.000000
   61       -5.019760   1.000000
   62       -4.858983   1.000000
   63       -4.792953   1.000000
   64       -4.700508   1.000000
   65       -4.681677   1.000000
   66       -4.579737   1.000000
   67       -4.519700   1.000000
   68       -4.474578   1.000000
   69       -4.429940   1.000000
   70       -4.391734   1.000000
   71       -4.361531   1.000000
   72       -4.251668   1.000000
   73       -4.231027   1.000000
   74       -4.148356   1.000000
   75       -4.042292   1.000000
   76       -3.986504   1.000000
   77       -3.900875   1.000000
   78       -3.862864   1.000000
   79       -3.829751   1.000000
   80       -3.746644   1.000000
   81       -3.658170   1.000000
   82       -3.542880   1.000000
   83       -3.464266   1.000000
   84       -3.433063   1.000000
   85       -3.400310   1.000000
   86       -3.331817   1.000000
   87       -3.311748   1.000000
   88       -3.253818   1.000000
   89       -3.150279   1.000000
   90       -3.118998   1.000000
   91       -3.043715   1.000000
   92       -3.006494   1.000000
   93       -2.988900   1.000000
   94       -2.853817   1.000000
   95       -2.722434   1.000000
   96       -2.677319   1.000000
   97       -2.566520   1.000000
   98       -2.539320   1.000000
   99       -2.484563   1.000000
  100       -2.446476   1.000000
  101       -2.345422   1.000000
  102       -2.279637   1.000000
  103       -2.248914   1.000000
  104       -2.188540   1.000000
  105       -2.146724   1.000000
  106       -2.073797   1.000000
  107       -2.048167   1.000000
  108       -1.993806   1.000000
  109       -1.963735   1.000000
  110       -1.912262   1.000000
  111       -1.812928   1.000000
  112       -1.733702   1.000000
  113       -1.634953   1.000000
  114       -1.564624   1.000000
  115       -1.405298   1.000000
  116       -1.340445   1.000000
  117       -1.291464   1.000000
  118       -1.161363   1.000000
  119       -1.099628   1.000000
  120       -0.988387   1.000000
  121       -0.969113   1.000000
  122       -0.914303   1.000000
  123       -0.699252   1.000000
  124       -0.562452   1.000015
  125       -0.446006   1.000392
  126       -0.350910   1.003245
  127       -0.322006   1.005539
  128       -0.245384   1.017445
  129       -0.206187   1.026312
  130       -0.115181   1.031238
  131       -0.087057   1.016852
  132       -0.004437   0.881356
  133        0.047786   0.711832
  134        0.157562   0.266311
  135        0.231225   0.055881
  136        0.272228  -0.004341
  137        0.282187  -0.013458
  138        0.394168  -0.028875
  139        0.421361  -0.022692
  140        0.490249  -0.009291
  141        0.553185  -0.003073
  142        0.674455  -0.000186
  143        0.718820  -0.000054
  144        0.816045  -0.000003
  145        0.894408  -0.000000
  146        0.980984  -0.000000
  147        0.999776  -0.000000
  148        1.033700  -0.000000
  149        1.072845  -0.000000
  150        1.117634  -0.000000
  151        1.168032  -0.000000
  152        1.215252  -0.000000
  153        1.286423  -0.000000
  154        1.310414  -0.000000
  155        1.326444  -0.000000
  156        1.368822  -0.000000
  157        1.387108  -0.000000
  158        1.420117  -0.000000
  159        1.458505  -0.000000
  160        1.505714  -0.000000
  161        1.585205  -0.000000
  162        1.624148  -0.000000
  163        1.647505  -0.000000
  164        1.667846  -0.000000
  165        1.841533  -0.000000
  166        2.074722  -0.000000
  167        2.213985  -0.000000
  168        2.528214  -0.000000

  0.4000000E+00  0.3742002E-15  0.1262379E-14  0.4444444E-01
    1      -13.836131   1.000000
    2      -13.487930   1.000000
    3      -12.585484   1.000000
    4      -12.258282   1.000000
    5      -11.843092   1.000000
    6      -11.740879   1.000000
    7      -11.716143   1.000000
    8      -11.402415   1.000000
    9      -11.270066   1.000000
   10      -11.167020   1.000000
   11      -11.045777   1.000000
   12      -11.000044   1.000000
   13      -10.833578   1.000000
   14      -10.708292   1.000000
   15      -10.608655   1.000000
   16      -10.495989   1.000000
   17      -10.226055   1.000000
   18      -10.044518   1.000000
   19       -9.986866   1.000000
   20       -9.730036   1.000000
   21       -9.411182   1.000000
   22       -9.358784   1.000000
   23       -9.149832   1.000000
   24       -8.921171   1.000000
   25       -8.876503   1.000000
   26       -8.703345   1.000000
   27       -8.367895   1.000000
   28       -8.155760   1.000000
   29       -7.980679   1.000000
   30       -7.861726   1.000000
   31       -7.847139   1.000000
   32       -7.744083   1.000000
   33       -7.667548   1.000000
   34       -7.630726   1.000000
   35       -7.482970   1.000000
   36       -7.415908   1.000000
   37       -7.278361   1.000000
   38       -7.146116   1.000000
   39       -7.028128   1.000000
   40       -6.794884   1.000000
   41       -6.620423   1.000000
   42       -6.524553   1.000000
   43       -6.485819   1.000000
   44       -6.403310   1.000000
   45       -6.229749   1.000000
   46       -6.107091   1.000000
   47       -6.030248   1.000000
   48       -6.021990   1.000000
   49       -5.931505   1.000000
   50       -5.898302   1.000000
   51       -5.799496   1.000000
   52       -5.689191   1.000000
   53       -5.607481   1.000000
   54       -5.518896   1.000000
   55       -5.464925   1.000000
   56       -5.419960   1.000000
   57       -5.310780   1.000000
   58       -5.205695   1.000000
   59       -5.137148   1.000000
   60       -5.122483   1.000000
   61       -5.045338   1.000000
   62       -4.873219   1.000000
   63       -4.746381   1.000000
   64       -4.733709   1.000000
   65       -4.661280   1.000000
   66       -4.626809   1.000000
   67       -4.532894   1.000000
   68       -4.509738   1.000000
   69       -4.448933   1.000000
   70       -4.368059   1.000000
   71       -4.315179   1.000000
   72       -4.280892   1.000000
   73       -4.122845   1.000000
   74       -4.088819   1.000000
   75       -4.029897   1.000000
   76       -3.958476   1.000000
   77       -3.932944   1.000000
   78       -3.905023   1.000000
   79       -3.874258   1.000000
   80       -3.737232   1.000000
   81       -3.666941   1.000000
   82       -3.572844   1.000000
   83       -3.534914   1.000000
   84       -3.489196   1.000000
   85       -3.448739   1.000000
   86       -3.372343   1.000000
   87       -3.268531   1.000000
   88       -3.233441   1.000000
   89       -3.154691   1.000000
   90       -3.139696   1.000000
   91       -3.105943   1.000000
   92       -2.984738   1.000000
   93       -2.955992   1.000000
   94       -2.903135   1.000000
   95       -2.865944   1.000000
   96       -2.689723   1.000000
   97       -2.605470   1.000000
   98       -2.560679   1.000000
   99       -2.471518   1.000000
  100       -2.369026   1.000000
  101       -2.330937   1.000000
  102       -2.263191   1.000000
  103       -2.237099   1.000000
  104       -2.102586   1.000000
  105       -2.027260   1.000000
  106       -2.010951   1.000000
  107       -1.960522   1.000000
  108       -1.921744   1.000000
  109       -1.892561   1.000000
  110       -1.860938   1.000000
  111       -1.731554   1.000000
  112       -1.677321   1.000000
  113       -1.598555   1.000000
  114       -1.567548   1.000000
  115       -1.518139   1.000000
  116       -1.387114   1.000000
  117       -1.358688   1.000000
  118       -1.242990   1.000000
  119       -1.115723   1.000000
  120       -1.046560   1.000000
  121       -1.019791   1.000000
  122       -0.892186   1.000000
  123       -0.780847   1.000000
  124       -0.667760   1.000000
  125       -0.489506   1.000126
  126       -0.382068   1.001722
  127       -0.354889   1.003002
  128       -0.345692   1.003588
  129       -0.295061   1.008687
  130       -0.214069   1.024498
  131       -0.143563   1.035447
  132       -0.026735   0.934017
  133        0.126098   0.389542
  134        0.177240   0.197776
  135        0.229611   0.059069
  136        0.270071  -0.002106
  137        0.317140  -0.031959
  138        0.415795  -0.023979
  139        0.482909  -0.010393
  140        0.520273  -0.005658
  141        0.641263  -0.000436
  142        0.685363  -0.000139
  143        0.779404  -0.000008
  144        0.832524  -0.000001
  145        0.893980  -0.000000
  146        0.920348  -0.000000
  147        1.052435  -0.000000
  148        1.082191  -0.000000
  149        1.154942  -0.000000
  150        1.178090  -0.000000
  151        1.202337  -0.000000
  152        1.233229  -0.000000
  153        1.251274  -0.000000
  154        1.308548  -0.000000
  155        1.345238  -0.000000
  156        1.368395  -0.000000
  157        1.396753  -0.000000
  158        1.463832  -0.000000
  159        1.508886  -0.000000
  160        1.574456  -0.000000
  161        1.642364  -0.000000
  162        1.688223  -0.000000
  163        1.734878  -0.000000
  164        1.865685  -0.000000
  165        2.044116  -0.000000
  166        2.119174  -0.000000
  167        2.203458  -0.000000
  168        2.608767  -0.000000

  0.3742002E-15  0.1111111E+00  0.1262379E-14  0.4444444E-01
    1      -13.933562   1.000000
    2      -12.950459   1.000000
    3      -12.805627   1.000000
    4      -12.393257   1.000000
    5      -11.967269   1.000000
    6      -11.689147   1.000000
    7      -11.634824   1.000000
    8      -11.600835   1.000000
    9      -11.514177   1.000000
   10      -11.266358   1.000000
   11      -11.122360   1.000000
   12      -10.982797   1.000000
   13      -10.877739   1.000000
   14      -10.433356   1.000000
   15      -10.248946   1.000000
   16      -10.199499   1.000000
   17      -10.106413   1.000000
   18      -10.037081   1.000000
   19       -9.844475   1.000000
   20       -9.697359   1.000000
   21       -9.597049   1.000000
   22       -9.478560   1.000000
   23       -9.245956   1.000000
   24       -9.034795   1.000000
   25       -8.928139   1.000000
   26       -8.710852   1.000000
   27       -8.528600   1.000000
   28       -8.375833   1.000000
   29       -8.261164   1.000000
   30       -8.152724   1.000000
   31       -7.901975   1.000000
   32       -7.828087   1.000000
   33       -7.613403   1.000000
   34       -7.407542   1.000000
   35       -7.262628   1.000000
   36       -7.181409   1.000000
   37       -7.009677   1.000000
   38       -6.809828   1.000000
   39       -6.743841   1.000000
   40       -6.707399   1.000000
   41       -6.660176   1.000000
   42       -6.549930   1.000000
   43       -6.466213   1.000000
   44       -6.405284   1.000000
   45       -6.345865   1.000000
   46       -6.283148   1.000000
   47       -6.137864   1.000000
   48       -6.052726   1.000000
   49       -5.967874   1.000000
   50       -5.845052   1.000000
   51       -5.769622   1.000000
   52       -5.744362   1.000000
   53       -5.676584   1.000000
   54       -5.618214   1.000000
   55       -5.527056   1.000000
   56       -5.366263   1.000000
   57       -5.320331   1.000000
   58       -5.236873   1.000000
   59       -5.168002   1.000000
   60       -5.059405   1.000000
   61       -4.979014   1.000000
   62       -4.859433   1.000000
   63       -4.745404   1.000000
   64       -4.713353   1.000000
   65       -4.634282   1.000000
   66       -4.598319   1.000000
   67       -4.557039   1.000000
   68       -4.527771   1.000000
   69       -4.484907   1.000000
   70       -4.412051   1.000000
   71       -4.293117   1.000000
   72       -4.237865   1.000000
   73       -4.213839   1.000000
   74       -4.178953   1.000000
   75       -4.060121   1.000000
   76       -4.004994   1.000000
   77       -3.945117   1.000000
   78       -3.856328   1.000000
   79       -3.807589   1.000000
   80       -3.750819   1.000000
   81       -3.696806   1.000000
   82       -3.612491   1.000000
   83       -3.523583   1.000000
   84       -3.492901   1.000000
   85       -3.394611   1.000000
   86       -3.305114   1.000000
   87       -3.267802   1.000000
   88       -3.218604   1.000000
   89       -3.176593   1.000000
   90       -3.137032   1.000000
   91       -3.082003   1.000000
   92       -3.016524   1.000000
   93       -2.924154   1.000000
   94       -2.840880   1.000000
   95       -2.735020   1.000000
   96       -2.703249   1.000000
   97       -2.640055   1.000000
   98       -2.547623   1.000000
   99       -2.515272   1.000000
  100       -2.418677   1.000000
  101       -2.391517   1.000000
  102       -2.342943   1.000000
  103       -2.287134   1.000000
  104       -2.220922   1.000000
  105       -2.172914   1.000000
  106       -2.152025   1.000000
  107       -2.082065   1.000000
  108       -1.989786   1.000000
  109       -1.930780   1.000000
  110       -1.914787   1.000000
  111       -1.835057   1.000000
  112       -1.717639   1.000000
  113       -1.662421   1.000000
  114       -1.552077   1.000000
  115       -1.425641   1.000000
  116       -1.342299   1.000000
  117       -1.261236   1.000000
  118       -1.189494   1.000000
  119       -1.013888   1.000000
  120       -0.953221   1.000000
  121       -0.919751   1.000000
  122       -0.799322   1.000000
  123       -0.636173   1.000001
  124       -0.567959   1.000012
  125       -0.441762   1.000436
  126       -0.306827   1.007179
  127       -0.276966   1.011433
  128       -0.250816   1.016310
  129       -0.180989   1.031638
  130       -0.154400   1.035152
  131       -0.095603   1.022540
  132        0.022087   0.802734
  133        0.126656   0.387251
  134        0.152127   0.286545
  135        0.238063   0.043091
  136        0.263656   0.005113
  137        0.301051  -0.025793
  138        0.361383  -0.034502
  139        0.449550  -0.016464
  140        0.479599  -0.010917
  141        0.590189  -0.001430
  142        0.668634  -0.000217
  143        0.758345  -0.000017
  144        0.787311  -0.000007
  145        0.845209  -0.000001
  146        0.910632  -0.000000
  147        0.963361  -0.000000
  148        1.008987  -0.000000
  149        1.087775  -0.000000
  150        1.142742  -0.000000
  151        1.161493  -0.000000
  152        1.197184  -0.000000
  153        1.242155  -0.000000
  154        1.268934  -0.000000
  155        1.305603  -0.000000
  156        1.355888  -0.000000
  157        1.374403  -0.000000
  158        1.413609  -0.000000
  159        1.433117  -0.000000
  160        1.470804  -0.000000
  161        1.495905  -0.000000
  162        1.554671  -0.000000
  163        1.586414  -0.000000
  164        1.680236  -0.000000
  165        1.759283  -0.000000
  166        1.831727  -0.000000
  167        1.904898  -0.000000
  168        2.148984  -0.000000

  0.2000000E+00  0.1111111E+00  0.1262379E-14  0.4444444E-01
    1      -13.893337   1.000000
    2      -13.193234   1.000000
    3      -12.673736   1.000000
    4      -12.175355   1.000000
    5      -11.963569   1.000000
    6      -11.948118   1.000000
    7      -11.734059   1.000000
    8      -11.476516   1.000000
    9      -11.287425   1.000000
   10      -11.241504   1.000000
   11      -11.090245   1.000000
   12      -10.907641   1.000000
   13      -10.863834   1.000000
   14      -10.577414   1.000000
   15      -10.499730   1.000000
   16      -10.316305   1.000000
   17      -10.231081   1.000000
   18      -10.052417   1.000000
   19       -9.730877   1.000000
   20       -9.647624   1.000000
   21       -9.469826   1.000000
   22       -9.409693   1.000000
   23       -9.300620   1.000000
   24       -9.049991   1.000000
   25       -8.982565   1.000000
   26       -8.721028   1.000000
   27       -8.342481   1.000000
   28       -8.251514   1.000000
   29       -8.124140   1.000000
   30       -8.078386   1.000000
   31       -8.023313   1.000000
   32       -7.850983   1.000000
   33       -7.570885   1.000000
   34       -7.488920   1.000000
   35       -7.369956   1.000000
   36       -7.215275   1.000000
   37       -7.016895   1.000000
   38       -6.935285   1.000000
   39       -6.833303   1.000000
   40       -6.726318   1.000000
   41       -6.684353   1.000000
   42       -6.594223   1.000000
   43       -6.494410   1.000000
   44       -6.421844   1.000000
   45       -6.363062   1.000000
   46       -6.327541   1.000000
   47       -6.104307   1.000000
   48       -5.964409   1.000000
   49       -5.871523   1.000000
   50       -5.817210   1.000000
   51       -5.764720   1.000000
   52       -5.712522   1.000000
   53       -5.634333   1.000000
   54       -5.528714   1.000000
   55       -5.439110   1.000000
   56       -5.381353   1.000000
   57       -5.323722   1.000000
   58       -5.256010   1.000000
   59       -5.164615   1.000000
   60       -5.104154   1.000000
   61       -4.998080   1.000000
   62       -4.851788   1.000000
   63       -4.772167   1.000000
   64       -4.726060   1.000000
   65       -4.666994   1.000000
   66       -4.574623   1.000000
   67       -4.527930   1.000000
   68       -4.514433   1.000000
   69       -4.456654   1.000000
   70       -4.351047   1.000000
   71       -4.329002   1.000000
   72       -4.302730   1.000000
   73       -4.221114   1.000000
   74       -4.109236   1.000000
   75       -4.053925   1.000000
   76       -3.995265   1.000000
   77       -3.916259   1.000000
   78       -3.891451   1.000000
   79       -3.852083   1.000000
   80       -3.740300   1.000000
   81       -3.675945   1.000000
   82       -3.618553   1.000000
   83       -3.543922   1.000000
   84       -3.488108   1.000000
   85       -3.439790   1.000000
   86       -3.346498   1.000000
   87       -3.270741   1.000000
   88       -3.233776   1.000000
   89       -3.186852   1.000000
   90       -3.134993   1.000000
   91       -3.098135   1.000000
   92       -3.043068   1.000000
   93       -2.976514   1.000000
   94       -2.813461   1.000000
   95       -2.761584   1.000000
   96       -2.673418   1.000000
   97       -2.579655   1.000000
   98       -2.568007   1.000000
   99       -2.468738   1.000000
  100       -2.449507   1.000000
  101       -2.347421   1.000000
  102       -2.344760   1.000000
  103       -2.275740   1.000000
  104       -2.249383   1.000000
  105       -2.205266   1.000000
  106       -2.105183   1.000000
  107       -2.036648   1.000000
  108       -1.946136   1.000000
  109       -1.917316   1.000000
  110       -1.863976   1.000000
  111       -1.789070   1.000000
  112       -1.746322   1.000000
  113       -1.678543   1.000000
  114       -1.510845   1.000000
  115       -1.426290   1.000000
  116       -1.382737   1.000000
  117       -1.262798   1.000000
  118       -1.217406   1.000000
  119       -1.081823   1.000000
  120       -1.016822   1.000000
  121       -0.890187   1.000000
  122       -0.856152   1.000000
  123       -0.679434   1.000000
  124       -0.575355   1.000010
  125       -0.424984   1.000655
  126       -0.385408   1.001603
  127       -0.297804   1.008316
  128       -0.241627   1.018250
  129       -0.218634   1.023441
  130       -0.173373   1.032953
  131       -0.095185   1.022290
  132       -0.000681   0.871255
  133        0.106204   0.472669
  134        0.166565   0.233982
  135        0.206775   0.111203
  136        0.267216   0.001000
  137        0.344735  -0.035458
  138        0.399194  -0.027773
  139        0.446770  -0.017043
  140        0.556851  -0.002859
  141        0.591611  -0.001386
  142        0.655462  -0.000305
  143        0.751997  -0.000020
  144        0.808195  -0.000003
  145        0.900844  -0.000000
  146        0.931421  -0.000000
  147        0.993810  -0.000000
  148        1.048057  -0.000000
  149        1.068131  -0.000000
  150        1.137320  -0.000000
  151        1.179116  -0.000000
  152        1.226750  -0.000000
  153        1.260888  -0.000000
  154        1.280603  -0.000000
  155        1.322093  -0.000000
  156        1.345865  -0.000000
  157        1.396722  -0.000000
  158        1.409104  -0.000000
  159        1.464623  -0.000000
  160        1.540686  -0.000000
  161        1.548001  -0.000000
  162        1.596962  -0.000000
  163        1.659454  -0.000000
  164        1.767508  -0.000000
  165        1.854709  -0.000000
  166        1.966273  -0.000000
  167        2.325458  -0.000000
  168        2.397330  -0.000000

  0.4000000E+00  0.1111111E+00  0.1262379E-14  0.4444444E-01
    1      -13.791743   1.000000
    2      -13.446497   1.000000
    3      -12.549853   1.000000
    4      -12.226289   1.000000
    5      -11.933425   1.000000
    6      -11.803376   1.000000
    7      -11.687130   1.000000
    8      -11.430421   1.000000
    9      -11.291032   1.000000
   10      -11.141348   1.000000
   11      -11.040834   1.000000
   12      -10.991755   1.000000
   13      -10.859708   1.000000
   14      -10.686713   1.000000
   15      -10.610932   1.000000
   16      -10.473580   1.000000
   17      -10.236421   1.000000
   18      -10.046393   1.000000
   19       -9.980216   1.000000
   20       -9.743055   1.000000
   21       -9.423774   1.000000
   22       -9.336104   1.000000
   23       -9.152173   1.000000
   24       -8.951673   1.000000
   25       -8.875098   1.000000
   26       -8.692883   1.000000
   27       -8.373515   1.000000
   28       -8.181322   1.000000
   29       -7.986641   1.000000
   30       -7.876946   1.000000
   31       -7.769542   1.000000
   32       -7.730372   1.000000
   33       -7.689738   1.000000
   34       -7.639050   1.000000
   35       -7.487764   1.000000
   36       -7.321748   1.000000
   37       -7.267767   1.000000
   38       -7.178743   1.000000
   39       -7.042977   1.000000
   40       -6.837119   1.000000
   41       -6.695270   1.000000
   42       -6.609909   1.000000
   43       -6.451680   1.000000
   44       -6.366251   1.000000
   45       -6.223772   1.000000
   46       -6.121397   1.000000
   47       -6.023301   1.000000
   48       -5.996223   1.000000
   49       -5.928042   1.000000
   50       -5.894011   1.000000
   51       -5.782553   1.000000