ESCALE ; pCOOP file generated by LOBSTER. Energy is shifted such that the Fermi level lies at 0 eV.
       353          1        501  -7.78695e+00   1.72631e+01   8.24511e+00 
Average
No.1:Mo2->Mo1(3.0891827046725457)
No.2:Mo2->Mo1(3.0858413388467358)
No.3:Mo3->Mo1(3.0349238099581726)
No.4:Mo3->Mo1(3.0348189870663407)
No.5:V6->Mo1(3.0387211690919909)
No.6:V6->Mo1(3.038936590290144)
No.7:B8->Mo1(2.3388700631764632)
No.8:B9->Mo1(2.3362016590979269)
No.9:B10->Mo1(2.3386942199506748)
No.10:B11->Mo1(2.3360095245974644)
No.11:B12->Mo1(2.3494044310462709)
No.12:B13->Mo1(2.3490665774772519)
No.13:B14->Mo1(2.3495724765433113)
No.14:B15->Mo1(2.3492934350231303)
No.15:B16->Mo1(2.3457085853247484)
No.16:B17->Mo1(2.3439083906024245)
No.17:B18->Mo1(2.345583380171278)
No.18:B19->Mo1(2.3437304285847316)
No.19:B20->Mo1(3.8470638471402299)
No.20:B20->Mo1(3.795590008851697)
No.21:B20->Mo1(3.8241356904199022)
No.22:B21->Mo1(3.8458163785244333)
No.23:B21->Mo1(3.7933446025801079)
No.24:B21->Mo1(3.8231512455599828)
No.25:B22->Mo1(3.8242885206732504)
No.26:B22->Mo1(3.7957097337435952)
No.27:B22->Mo1(3.846993590287807)
No.28:B23->Mo1(3.8233307258740741)
No.29:B23->Mo1(3.7936117668255762)
No.30:B23->Mo1(3.8456526285034731)
No.31:Mo4->Mo2(3.0349053727585291)
No.32:Mo4->Mo2(3.0348374273590708)
No.33:V5->Mo2(3.0388634684087306)
No.34:V5->Mo2(3.0387477191629553)
No.35:V7->Mo2(3.0388811715877662)
No.36:V7->Mo2(3.0387754565266927)
No.37:B8->Mo2(2.3763984053225884)
No.38:B9->Mo2(2.3781384302923865)
No.39:B10->Mo2(2.3765127376002897)
No.40:B11->Mo2(2.3782413147912318)
No.41:B12->Mo2(2.3469412160092062)
No.42:B13->Mo2(2.3451094074231063)
No.43:B14->Mo2(2.34681166717324)
No.44:B15->Mo2(2.3449805223913702)
No.45:B16->Mo2(2.3790116300920743)
No.46:B17->Mo2(2.3798596653259088)
No.47:B18->Mo2(2.379129730519177)
No.48:B19->Mo2(2.3799927606115086)
No.49:B20->Mo2(3.8675271017152055)
No.50:B20->Mo2(3.8165260118203284)
No.51:B20->Mo2(3.8448970880981732)
No.52:B21->Mo2(3.8678882586354102)
No.53:B21->Mo2(3.8160289459229952)
No.54:B21->Mo2(3.8455677916157009)
No.55:B22->Mo2(3.8448090688751102)
No.56:B22->Mo2(3.816364634741173)
No.57:B22->Mo2(3.8675687416335403)
No.58:B23->Mo2(3.845474242592978)
No.59:B23->Mo2(3.8158350461881101)
No.60:B23->Mo2(3.867881678602807)
No.61:Mo4->Mo3(3.0891458489213917)
No.62:Mo4->Mo3(3.0858782008952552)
No.63:V6->Mo3(3.0389535708446358)
No.64:V6->Mo3(3.0386589639199197)
No.65:B8->Mo3(2.338813348973217)
No.66:B9->Mo3(2.3361456114675736)
No.67:B10->Mo3(2.3387781422144962)
No.68:B11->Mo3(2.3361494630273714)
No.69:B12->Mo3(2.3494381039020662)
No.70:B13->Mo3(2.3491729337168938)
No.71:B14->Mo3(2.3494535367910157)
No.72:B15->Mo3(2.3491965558071621)
No.73:B16->Mo3(3.824380215844819)
No.74:B16->Mo3(3.7956146636134682)
No.75:B16->Mo3(3.8469910348419583)
No.76:B17->Mo3(3.8235045219962784)
No.77:B17->Mo3(3.793372618130431)
No.78:B17->Mo3(3.8457133427515218)
No.79:B18->Mo3(3.8469853526704672)
No.80:B18->Mo3(3.7956053090130255)
No.81:B18->Mo3(3.8242801469640058)
No.82:B19->Mo3(3.8457174532569867)
No.83:B19->Mo3(3.7934579740761181)
No.84:B19->Mo3(3.8233300469370866)
No.85:B20->Mo3(2.3454910933640076)
No.86:B21->Mo3(2.3437033044725237)
No.87:B22->Mo3(2.3455983171143853)
No.88:B23->Mo3(2.3437556432781799)
No.89:V5->Mo4(3.0384513339950359)
No.90:V5->Mo4(3.0392050139893527)
No.91:V7->Mo4(3.0388767787942772)
No.92:V7->Mo4(3.0387346628961032)
No.93:B8->Mo4(2.3765180053255883)
No.94:B9->Mo4(2.3782619383884516)
No.95:B10->Mo4(2.3764479027644296)
No.96:B11->Mo4(2.3781724031301921)
No.97:B12->Mo4(2.3468875695664462)
No.98:B13->Mo4(2.3450676475998131)
No.99:B14->Mo4(2.3468092610679228)
No.100:B15->Mo4(2.345002462226125)
No.101:B16->Mo4(3.8447955322394027)
No.102:B16->Mo4(3.8164740122838028)
No.103:B16->Mo4(3.8674331326395266)
No.104:B17->Mo4(3.8455106344536487)
No.105:B17->Mo4(3.8159548772917389)
No.106:B17->Mo4(3.8677774906548117)
No.107:B18->Mo4(3.8675024566604264)
No.108:B18->Mo4(3.8162565967063475)
No.109:B18->Mo4(3.8450654032119034)
No.110:B19->Mo4(3.8678594731236777)
No.111:B19->Mo4(3.8156877979838595)
No.112:B19->Mo4(3.8457864233454178)
No.113:B20->Mo4(2.3790036835823738)
No.114:B21->Mo4(2.379848788271302)
No.115:B22->Mo4(2.3791235445162422)
No.116:B23->Mo4(2.3799250038489497)
No.117:V7->V5(3.0351346028282324)
No.118:V7->V5(3.0346096661203279)
No.119:B8->V5(2.3172009332173764)
No.120:B9->V5(2.3160915401049933)
No.121:B10->V5(2.3170696114744032)
No.122:B11->V5(2.3160282785386483)
No.123:B12->V5(3.8167255428848228)
No.124:B12->V5(3.8630308475384392)
No.125:B12->V5(3.8164352868028666)
No.126:B13->V5(3.8148563958438904)
No.127:B13->V5(3.8613062690893418)
No.128:B13->V5(3.8145631724020608)
No.129:B14->V5(3.8165645269424724)
No.130:B14->V5(3.8632564112255956)
No.131:B14->V5(3.8162890977036437)
No.132:B15->V5(3.8146994844235538)
No.133:B15->V5(3.8615260073141546)
No.134:B15->V5(3.8144420245879438)
No.135:B16->V5(2.3328968021327792)
No.136:B17->V5(2.3319141467933626)
No.137:B18->V5(2.3328371258625689)
No.138:B19->V5(2.3318184499936869)
No.139:B20->V5(2.3327904533514943)
No.140:B21->V5(2.331798851172934)
No.141:B22->V5(2.3329958647918687)
No.142:B23->V5(2.3319732541294225)
No.143:V7->V6(3.0856875887621538)
No.144:V7->V6(3.0893364791088196)
No.145:B8->V6(3.7938985928110336)
No.146:B8->V6(3.8731813342428092)
No.147:B8->V6(3.7938306542460176)
No.148:B9->V6(3.7930330503973844)
No.149:B9->V6(3.8743052724149507)
No.150:B9->V6(3.7929188410376424)
No.151:B10->V6(3.7936587136944069)
No.152:B10->V6(3.8734904691160561)
No.153:B10->V6(3.7935823998967635)
No.154:B11->V6(3.7927457090432557)
No.155:B11->V6(3.8746624763711148)
No.156:B11->V6(3.7926476022202529)
No.157:B12->V6(2.3148434325665246)
No.158:B13->V6(2.3174791053215307)
No.159:B14->V6(2.3146267516013492)
No.160:B15->V6(2.3171609707379903)
No.161:B16->V6(2.3155234364519921)
No.162:B17->V6(2.3155189292505409)
No.163:B18->V6(2.3156511944888316)
No.164:B19->V6(2.3157321195830729)
No.165:B20->V6(2.3155017471039567)
No.166:B21->V6(2.315557886334314)
No.167:B22->V6(2.3157076588177112)
No.168:B23->V6(2.3158071817772541)
No.169:B8->V7(3.8173336221953869)
No.170:B8->V7(3.8965826694390744)
No.171:B8->V7(3.8174550298460175)
No.172:B9->V7(3.8183977520380235)
No.173:B9->V7(3.899693891784096)
No.174:B9->V7(3.8185119426261602)
No.175:B10->V7(3.8174546659419968)
No.176:B10->V7(3.8965409178936636)
No.177:B10->V7(3.8175677514000168)
No.178:B11->V7(3.8185479344949176)
No.179:B11->V7(3.8995931372249695)
No.180:B11->V7(3.8186781219571961)
No.181:B12->V7(2.3127029117372322)
No.182:B13->V7(2.3124187020659162)
No.183:B14->V7(2.3127787151346513)
No.184:B15->V7(2.312518551819601)
No.185:B16->V7(2.3500897898861708)
No.186:B17->V7(2.3516218330578575)
No.187:B18->V7(2.3500007465836381)
No.188:B19->V7(2.3515030372956462)
No.189:B20->V7(2.3501688842992987)
No.190:B21->V7(2.3517425633302311)
No.191:B22->V7(2.3501151983581616)
No.192:B23->V7(2.3516226829101066)
No.193:B9->B8(3.1482417052353355)
No.194:B9->B8(3.0267830583848991)
No.195:B10->B8(3.5621822294667722)
No.196:B10->B8(3.4006162820997052)
No.197:B10->B8(3.5620962291548177)
No.198:B12->B8(3.035116471805881)
No.199:B12->B8(3.0351236771988508)
No.200:B14->B8(1.8413406857851282)
No.201:B15->B8(3.6167286527255023)
No.202:B15->B8(3.572957730356106)
No.203:B16->B8(2.9564685075935664)
No.204:B16->B8(3.1214625587179419)
No.205:B18->B8(1.7291486704669654)
No.206:B19->B8(3.5882923184315749)
No.207:B19->B8(3.489958354043456)
No.208:B20->B8(3.1214627929456533)
No.209:B20->B8(2.9565109279953052)
No.210:B22->B8(1.7290631346089036)
No.211:B23->B8(3.5881385549617621)
No.212:B23->B8(3.4900109046420296)
No.213:B11->B9(3.5637381289134966)
No.214:B11->B9(3.3976214216592364)
No.215:B11->B9(3.5636782235378357)
No.216:B13->B9(3.0351748059597838)
No.217:B13->B9(3.035187497739281)
No.218:B14->B9(3.5697557820688512)
No.219:B14->B9(3.6213742830337967)
No.220:B15->B9(1.8430314741674974)
No.221:B17->B9(2.9546080500654246)
No.222:B17->B9(3.1233543731138185)
No.223:B18->B9(3.4881937855579017)
No.224:B18->B9(3.5887994121140663)
No.225:B19->B9(1.7289952152384329)
No.226:B21->B9(3.1233463855706698)
No.227:B21->B9(2.9546575811897955)
No.228:B22->B9(3.4881899890105093)
No.229:B22->B9(3.5886902400062182)
No.230:B23->B9(1.728863491131045)
No.231:B11->B10(3.1485795767941456)