  COHP#       atomMU       atomNU     distance     translation      ICOHP (at) eF   for spin  1
      1          Mo2          Mo1      3.08918       0   0   0           -0.54083 
      2          Mo2          Mo1      3.08584       0   0   1           -0.54700 
      3          Mo3          Mo1      3.03492      -1  -1   0           -0.51439 
      4          Mo3          Mo1      3.03482       0   0   0           -0.51448 
      5           V6          Mo1      3.03872      -1   0   0           -0.36533 
      6           V6          Mo1      3.03894       0   0   0           -0.36520 
      7           B8          Mo1      2.33887      -1  -1   0           -1.93692 
      8           B9          Mo1      2.33620      -1  -1   1           -1.94997 
      9          B10          Mo1      2.33869       0   0   0           -1.93731 
     10          B11          Mo1      2.33601       0   0   1           -1.94978 
     11          B12          Mo1      2.34940       0   0   0           -1.90276 
     12          B13          Mo1      2.34907       0   0   1           -1.90396 
     13          B14          Mo1      2.34957      -1  -1   0           -1.90204 
     14          B15          Mo1      2.34929      -1  -1   1           -1.90263 
     15          B16          Mo1      2.34571      -1   0   0           -1.89134 
     16          B17          Mo1      2.34391      -1   0   1           -1.89868 
     17          B18          Mo1      2.34558       0  -1   0           -1.89176 
     18          B19          Mo1      2.34373       0  -1   1           -1.90051 
     19          Mo4          Mo2      3.03491      -1  -1   0           -0.55259 
     20          Mo4          Mo2      3.03484       0   0   0           -0.55259 
     21           V5          Mo2      3.03886       0  -1   0           -0.38674 
     22           V5          Mo2      3.03875       0   0   0           -0.38726 
     23           V7          Mo2      3.03888      -1   0   0           -0.39026 
     24           V7          Mo2      3.03878       0   0   0           -0.39107 
     25           B8          Mo2      2.37640      -1  -1   0           -1.78356 
     26           B9          Mo2      2.37814      -1  -1   0           -1.77538 
     27          B10          Mo2      2.37651       0   0   0           -1.78275 
     28          B11          Mo2      2.37824       0   0   0           -1.77475 
     29          B12          Mo2      2.34694       0   0   0           -1.91362 
     30          B13          Mo2      2.34511       0   0   0           -1.92454 
     31          B14          Mo2      2.34681      -1  -1   0           -1.91508 
     32          B15          Mo2      2.34498      -1  -1   0           -1.92579 
     33          B16          Mo2      2.37901      -1   0   0           -1.77023 
     34          B17          Mo2      2.37986      -1   0   0           -1.76577 
     35          B18          Mo2      2.37913       0  -1   0           -1.77058 
     36          B19          Mo2      2.37999       0  -1   0           -1.76507 
     37          Mo4          Mo3      3.08915       0   0   0           -0.54106 
     38          Mo4          Mo3      3.08588       0   0   1           -0.54699 
     39           V6          Mo3      3.03895       0   0   0           -0.36578 
     40           V6          Mo3      3.03866       0   1   0           -0.36523 
     41           B8          Mo3      2.33881       0   0   0           -1.93727 
     42           B9          Mo3      2.33615       0   0   1           -1.95013 
     43          B10          Mo3      2.33878       0   0   0           -1.93686 
     44          B11          Mo3      2.33615       0   0   1           -1.94874 
     45          B12          Mo3      2.34944       0   0   0           -1.90273 
     46          B13          Mo3      2.34917       0   0   1           -1.90345 
     47          B14          Mo3      2.34945       0   0   0           -1.90226 
     48          B15          Mo3      2.34920       0   0   1           -1.90274 
     49          B20          Mo3      2.34549       0   0   0           -1.89194 
     50          B21          Mo3      2.34370       0   0   1           -1.89891 
     51          B22          Mo3      2.34560       0   0   0           -1.89168 
     52          B23          Mo3      2.34376       0   0   1           -1.90009 
     53           V5          Mo4      3.03845       0   0   0           -0.38818 
     54           V5          Mo4      3.03921       1   0   0           -0.38657 
     55           V7          Mo4      3.03888       0   0   0           -0.39111 
     56           V7          Mo4      3.03873       0   1   0           -0.39087 
     57           B8          Mo4      2.37652       0   0   0           -1.78328 
     58           B9          Mo4      2.37826       0   0   0           -1.77526 
     59          B10          Mo4      2.37645       0   0   0           -1.78324 
     60          B11          Mo4      2.37817       0   0   0           -1.77541 
     61          B12          Mo4      2.34689       0   0   0           -1.91430 
     62          B13          Mo4      2.34507       0   0   0           -1.92466 
     63          B14          Mo4      2.34681       0   0   0           -1.91482 
     64          B15          Mo4      2.34500       0   0   0           -1.92589 
     65          B20          Mo4      2.37900       0   0   0           -1.76980 
     66          B21          Mo4      2.37985       0   0   0           -1.76562 
     67          B22          Mo4      2.37912       0   0   0           -1.77064 
     68          B23          Mo4      2.37993       0   0   0           -1.76555 
     69           V7           V5      3.03513      -1   0   0           -0.31585 
     70           V7           V5      3.03461       0   1   0           -0.31648 
     71           B8           V5      2.31720      -1   0   0           -1.30474 
     72           B9           V5      2.31609      -1   0   0           -1.30874 
     73          B10           V5      2.31707       0   0   0           -1.30554 
     74          B11           V5      2.31603       0   0   0           -1.30865 
     75          B16           V5      2.33290      -1   0   0           -1.25382 
     76          B17           V5      2.33191      -1   0   0           -1.25604 
     77          B18           V5      2.33284       0   0   0           -1.25390 
     78          B19           V5      2.33182       0   0   0           -1.25676 
     79          B20           V5      2.33279       0   0   0           -1.25424 
     80          B21           V5      2.33180       0   0   0           -1.25633 
     81          B22           V5      2.33300      -1   0   0           -1.25346 
     82          B23           V5      2.33197      -1   0   0           -1.25628 
     83           V7           V6      3.08569       0   0   0           -0.27926 
     84           V7           V6      3.08934       0   0   1           -0.27652 
     85          B12           V6      2.31484       0   0   0           -1.32752 
     86          B13           V6      2.31748       0   0   1           -1.31764 
     87          B14           V6      2.31463       0  -1   0           -1.32815 
     88          B15           V6      2.31716       0  -1   1           -1.31918 
     89          B16           V6      2.31552       0   0   0           -1.32883 
     90          B17           V6      2.31552       0   0   1           -1.32839 
     91          B18           V6      2.31565       0  -1   0           -1.32856 
     92          B19           V6      2.31573       0  -1   1           -1.32755 
     93          B20           V6      2.31550       0  -1   0           -1.32893 
     94          B21           V6      2.31556       0  -1   1           -1.32834 
     95          B22           V6      2.31571       0   0   0           -1.32839 
     96          B23           V6      2.31581       0   0   1           -1.32734 
     97          B12           V7      2.31270       0   0   0           -1.32813 
     98          B13           V7      2.31242       0   0   0           -1.33106 
     99          B14           V7      2.31278       0  -1   0           -1.32793 
    100          B15           V7      2.31252       0  -1   0           -1.33056 
    101          B16           V7      2.35009       0   0   0           -1.23769 
    102          B17           V7      2.35162       0   0   0           -1.23222 
    103          B18           V7      2.35000       0  -1   0           -1.23766 
    104          B19           V7      2.35150       0  -1   0           -1.23280 
    105          B20           V7      2.35017       0  -1   0           -1.23736 
    106          B21           V7      2.35174       0  -1   0           -1.23184 
    107          B22           V7      2.35012       0   0   0           -1.23721 
    108          B23           V7      2.35162       0   0   0           -1.23242 
    109           B9           B8      3.14824       0   0   0           -0.12986 
    110           B9           B8      3.02678       0   0   1           -0.19461 
    111          B10           B8      3.40062       1   0   0            0.01980 
    112          B12           B8      3.03512       0   0   0           -0.05197 
    113          B12           B8      3.03512       1   1   0           -0.05196 
    114          B14           B8      1.84134       0   0   0           -5.52592 
    115          B16           B8      2.95647       0   0   0           -0.17274 
    116          B16           B8      3.12146       0   1   0           -0.05033 
    117          B18           B8      1.72915       1   0   0           -7.21519 
    118          B19           B8      3.48996       1   0   1           -0.01546 
    119          B20           B8      3.12146       0   0   0           -0.05032 
    120          B20           B8      2.95651       1   0   0           -0.17273 
    121          B22           B8      1.72906       0   0   0           -7.21623 
    122          B23           B8      3.49001       0   0   1           -0.01548 
    123          B11           B9      3.39762       1   0   0            0.01970 
    124          B13           B9      3.03517       0   0   0           -0.05186 
    125          B13           B9      3.03519       1   1   0           -0.05184 
    126          B15           B9      1.84303       0   0   0           -5.50409 
    127          B17           B9      2.95461       0   0   0           -0.17328 
    128          B17           B9      3.12335       0   1   0           -0.04980 
    129          B18           B9      3.48819       1   0  -1           -0.01557 
    130          B19           B9      1.72900       1   0   0           -7.21397 
    131          B21           B9      3.12335       0   0   0           -0.04979 
    132          B21           B9      2.95466       1   0   0           -0.17325 
    133          B22           B9      3.48819       0   0  -1           -0.01558 
    134          B23           B9      1.72886       0   0   0           -7.21560 
    135          B11          B10      3.14858       0   0   0           -0.12965 
    136          B11          B10      3.02645       0   0   1           -0.19495 
    137          B12          B10      1.84139       0   0   0           -5.52476 
    138          B14          B10      3.03510      -1  -1   0           -0.05209 
    139          B14          B10      3.03514       0   0   0           -0.05210 
    140          B16          B10      1.72913      -1   0   0           -7.21565 
    141          B17          B10      3.48992      -1   0   1           -0.01545 
    142          B18          B10      3.12147       0  -1   0           -0.05035 
    143          B18          B10      2.95646       0   0   0           -0.17286 
    144          B20          B10      1.72907       0   0   0           -7.21658 
    145          B21          B10      3.48967       0   0   1           -0.01547 
    146          B22          B10      2.95645      -1   0   0           -0.17280 
    147          B22          B10      3.12152       0   0   0           -0.05036 
    148          B13          B11      1.84302       0   0   0           -5.50468 
    149          B15          B11      3.03516      -1  -1   0           -0.05176 
    150          B15          B11      3.03520       0   0   0           -0.05179 
    151          B16          B11      3.48808      -1   0  -1           -0.01557 
    152          B17          B11      1.72900      -1   0   0           -7.21455 
    153          B19          B11      3.12334       0  -1   0           -0.04984 
    154          B19          B11      2.95462       0   0   0           -0.17355 
    155          B20          B11      3.48789       0   0  -1           -0.01558 
    156          B21          B11      1.72888       0   0   0           -7.21639 
    157          B23          B11      2.95468      -1   0   0           -0.17345 
    158          B23          B11      3.12333       0   0   0           -0.04987 
    159          B13          B12      3.08244       0   0   0           -0.14593 
    160          B13          B12      3.09258       0   0   1           -0.13395 
    161          B14          B12      3.44849       0  -1   0            0.00608 
    162          B16          B12      3.08675      -1   0   0           -0.03895 
    163          B16          B12      2.99179       0   0   0           -0.09267 
    164          B18          B12      1.76612       0  -1   0           -6.73971 
    165          B20          B12      2.99188       0  -1   0           -0.09267 
    166          B20          B12      3.08662       0   0   0           -0.03898 
    167          B22          B12      1.76616       0   0   0           -6.73944 
    168          B15          B13      3.44832       0  -1   0            0.00622 
    169          B17          B13      3.08764      -1   0   0           -0.03853 
    170          B17          B13      2.99097       0   0   0           -0.09329 
    171          B19          B13      1.76633       0  -1   0           -6.73533 
    172          B21          B13      2.99110       0  -1   0           -0.09330 
    173          B21          B13      3.08747       0   0   0           -0.03860 
    174          B23          B13      1.76634       0   0   0           -6.73522 
    175          B15          B14      3.08232       0   0   0           -0.14584 
    176          B15          B14      3.09270       0   0   1           -0.13397 
    177          B16          B14      1.76613       0   1   0           -6.73866 
    178          B18          B14      2.99182       0   0   0           -0.09273 
    179          B18          B14      3.08672       1   0   0           -0.03895 
    180          B20          B14      1.76615       0   0   0           -6.73809 
    181          B22          B14      3.08661       0   0   0           -0.03895 
    182          B22          B14      2.99188       0   1   0           -0.09272 
    183          B17          B15      1.76631       0   1   0           -6.73529 
    184          B19          B15      2.99099       0   0   0           -0.09333 
    185          B19          B15      3.08763       1   0   0           -0.03874 
    186          B21          B15      1.76637       0   0   0           -6.73403 
    187          B23          B15      3.08747       0   0   0           -0.03876 
    188          B23          B15      2.99109       0   1   0           -0.09331 
    189          B17          B16      3.14062       0   0   0           -0.14742 
    190          B17          B16      3.03440       0   0   1           -0.20861 
    191          B18          B16      3.49930       0  -1   0            0.01302 
    192          B18          B16      3.44920       1   0   0            0.01798 
    193          B20          B16      3.06360       0  -1   0           -0.08782 
    194          B20          B16      3.00615       1   0   0           -0.15256 
    195          B22          B16      1.69113       0   0   0           -8.03417 
    196          B23          B16      3.47353       0   0   1           -0.01434 
    197          B19          B17      3.49814       0  -1   0            0.01313 
    198          B19          B17      3.44883       1   0   0            0.01781 
    199          B21          B17      3.06317       0  -1   0           -0.08804 
    200          B21          B17      3.00657       1   0   0           -0.15249 
    201          B22          B17      3.47341       0   0  -1           -0.01435 
    202          B23          B17      1.68962       0   0   0           -8.05187 
    203          B19          B18      3.14079       0   0   0           -0.14731 
    204          B19          B18      3.03423       0   0   1           -0.20873 
    205          B20          B18      1.69116       0   0   0           -8.03348 
    206          B21          B18      3.47319       0   0   1           -0.01435 
    207          B22          B18      3.00612      -1   0   0           -0.15257 
    208          B22          B18      3.06362       0   1   0           -0.08791 
    209          B20          B19      3.47325       0   0  -1           -0.01435 
    210          B21          B19      1.68961       0   0   0           -8.05177 
    211          B23          B19      3.00657      -1   0   0           -0.15217 
    212          B23          B19      3.06317       0   1   0           -0.08808 
    213          B21          B20      3.14102       0   0   0           -0.14721 
    214          B21          B20      3.03400       0   0   1           -0.20883 
    215          B22          B20      3.44916      -1   0   0            0.01799 
    216          B22          B20      3.49946       0   1   0            0.01304 
    217          B23          B21      3.44879      -1   0   0            0.01780 
    218          B23          B21      3.49838       0   1   0            0.01316 
    219          B23          B22      3.14061       0   0   0           -0.14740 
    220          B23          B22      3.03441       0   0   1           -0.20863 
