   74   74   85    1
  0.2087222E+02  0.1036705E-08  0.2428040E-08  0.6136055E-09  0.5000000E-15
   1.0000000000000000E-004
  CAR 
 Name                                    
    278     23    180

  0.3742002E-15  0.1262379E-14  0.3742002E-15  0.2222222E-01
    1      -14.023836   1.000000
    2      -12.897364   1.000000
    3      -12.830764   1.000000
    4      -12.795309   1.000000
    5      -11.889310   1.000000
    6      -11.825333   1.000000
    7      -11.664009   1.000000
    8      -11.477121   1.000000
    9      -11.461491   1.000000
   10      -11.314106   1.000000
   11      -11.296050   1.000000
   12      -10.996987   1.000000
   13      -10.967494   1.000000
   14      -10.689624   1.000000
   15      -10.538481   1.000000
   16      -10.490418   1.000000
   17      -10.217224   1.000000
   18      -10.175433   1.000000
   19      -10.081220   1.000000
   20       -9.804532   1.000000
   21       -9.598610   1.000000
   22       -9.533885   1.000000
   23       -9.504931   1.000000
   24       -9.360750   1.000000
   25       -9.038847   1.000000
   26       -8.813806   1.000000
   27       -8.677509   1.000000
   28       -8.595222   1.000000
   29       -8.437730   1.000000
   30       -8.167559   1.000000
   31       -8.164887   1.000000
   32       -7.858231   1.000000
   33       -7.767936   1.000000
   34       -7.715993   1.000000
   35       -7.312194   1.000000
   36       -7.220385   1.000000
   37       -7.031033   1.000000
   38       -6.902268   1.000000
   39       -6.781134   1.000000
   40       -6.743679   1.000000
   41       -6.714316   1.000000
   42       -6.699240   1.000000
   43       -6.592855   1.000000
   44       -6.460164   1.000000
   45       -6.430894   1.000000
   46       -6.298846   1.000000
   47       -6.171288   1.000000
   48       -6.162704   1.000000
   49       -6.153282   1.000000
   50       -6.095233   1.000000
   51       -5.826449   1.000000
   52       -5.790759   1.000000
   53       -5.728596   1.000000
   54       -5.664727   1.000000
   55       -5.644340   1.000000
   56       -5.636132   1.000000
   57       -5.512739   1.000000
   58       -5.396383   1.000000
   59       -5.377735   1.000000
   60       -5.240082   1.000000
   61       -5.196486   1.000000
   62       -5.073702   1.000000
   63       -4.742685   1.000000
   64       -4.716730   1.000000
   65       -4.574130   1.000000
   66       -4.567778   1.000000
   67       -4.561950   1.000000
   68       -4.458130   1.000000
   69       -4.381296   1.000000
   70       -4.163604   1.000000
   71       -4.064726   1.000000
   72       -4.048737   1.000000
   73       -3.995378   1.000000
   74       -3.991493   1.000000
   75       -3.962604   1.000000
   76       -3.952492   1.000000
   77       -3.919398   1.000000
   78       -3.881922   1.000000
   79       -3.830559   1.000000
   80       -3.714313   1.000000
   81       -3.617465   1.000000
   82       -3.598923   1.000000
   83       -3.591512   1.000000
   84       -3.553391   1.000000
   85       -3.519751   1.000000
   86       -3.515306   1.000000
   87       -3.511160   1.000000
   88       -3.510797   1.000000
   89       -3.476620   1.000000
   90       -3.416645   1.000000
   91       -3.394466   1.000000
   92       -3.199984   1.000000
   93       -3.101630   1.000000
   94       -2.948980   1.000000
   95       -2.940170   1.000000
   96       -2.928741   1.000000
   97       -2.831802   1.000000
   98       -2.736372   1.000000
   99       -2.607669   1.000000
  100       -2.444109   1.000000
  101       -2.334784   1.000000
  102       -2.323463   1.000000
  103       -2.313936   1.000000
  104       -2.256921   1.000000
  105       -2.231989   1.000000
  106       -2.064409   1.000000
  107       -2.034585   1.000000
  108       -2.028252   1.000000
  109       -2.009715   1.000000
  110       -1.986464   1.000000
  111       -1.913063   1.000000
  112       -1.843868   1.000000
  113       -1.778336   1.000000
  114       -1.723634   1.000000
  115       -1.665495   1.000000
  116       -1.600925   1.000000
  117       -1.581942   1.000000
  118       -1.568229   1.000000
  119       -1.438382   1.000000
  120       -1.427615   1.000000
  121       -1.393887   1.000000
  122       -0.989012   1.000000
  123       -0.895864   1.000000
  124       -0.836473   1.000000
  125       -0.745785   1.000000
  126       -0.681540   1.000000
  127       -0.511172   1.000000
  128       -0.483794   1.000000
  129       -0.458884   1.000000
  130       -0.334399   1.000000
  131       -0.074342   1.000000
  132       -0.061368   1.000000
  133       -0.020370   1.000002
  134        0.241863   1.028262
  135        0.275885   0.957497
  136        0.291917   0.887649
  137        0.327669   0.645949
  138        0.356925   0.401617
  139        0.407711   0.069079
  140        0.468105  -0.035455
  141        0.468248  -0.035453
  142        0.538393  -0.009902
  143        0.595072  -0.001165
  144        0.609767  -0.000590
  145        0.611123  -0.000552
  146        0.618946  -0.000376
  147        0.653555  -0.000058
  148        0.671798  -0.000020
  149        0.834300  -0.000000
  150        0.851935  -0.000000
  151        0.997671  -0.000000
  152        1.063884  -0.000000
  153        1.090932  -0.000000
  154        1.162009  -0.000000
  155        1.194512  -0.000000
  156        1.218235  -0.000000
  157        1.229654  -0.000000
  158        1.318198  -0.000000
  159        1.333644  -0.000000
  160        1.373735  -0.000000
  161        1.375866  -0.000000
  162        1.389593  -0.000000
  163        1.404122  -0.000000
  164        1.405632  -0.000000
  165        1.503618  -0.000000
  166        1.561677  -0.000000
  167        1.595139  -0.000000
  168        1.623664  -0.000000
  169        1.641476  -0.000000
  170        1.666113  -0.000000
  171        1.677343  -0.000000
  172        1.678861  -0.000000
  173        1.722633  -0.000000
  174        1.738116  -0.000000
  175        1.774312  -0.000000
  176        1.789494  -0.000000
  177        1.792630  -0.000000
  178        1.933414  -0.000000
  179        1.938068  -0.000000
  180        2.003700  -0.000000

  0.2000000E+00  0.1262379E-14  0.3742002E-15  0.4444444E-01
    1      -13.974768   1.000000
    2      -13.258772   1.000000
    3      -12.792731   1.000000
    4      -12.355193   1.000000
    5      -12.118440   1.000000
    6      -11.873275   1.000000
    7      -11.623233   1.000000
    8      -11.423894   1.000000
    9      -11.304562   1.000000
   10      -11.266402   1.000000
   11      -11.165260   1.000000
   12      -11.085659   1.000000
   13      -10.852901   1.000000
   14      -10.693476   1.000000
   15      -10.687815   1.000000
   16      -10.581557   1.000000
   17      -10.543679   1.000000
   18      -10.266317   1.000000
   19      -10.105251   1.000000
   20       -9.663474   1.000000
   21       -9.549494   1.000000
   22       -9.492835   1.000000
   23       -9.422428   1.000000
   24       -9.331465   1.000000
   25       -9.200270   1.000000
   26       -8.884516   1.000000
   27       -8.494342   1.000000
   28       -8.481944   1.000000
   29       -8.174298   1.000000
   30       -8.163199   1.000000
   31       -8.129211   1.000000
   32       -8.076499   1.000000
   33       -7.726709   1.000000
   34       -7.565311   1.000000
   35       -7.463991   1.000000
   36       -7.294488   1.000000
   37       -7.239416   1.000000
   38       -6.974727   1.000000
   39       -6.888076   1.000000
   40       -6.721543   1.000000
   41       -6.679930   1.000000
   42       -6.630982   1.000000
   43       -6.623663   1.000000
   44       -6.464756   1.000000
   45       -6.411260   1.000000
   46       -6.403505   1.000000
   47       -6.197583   1.000000
   48       -6.133354   1.000000
   49       -6.068047   1.000000
   50       -6.043927   1.000000
   51       -6.010301   1.000000
   52       -5.793836   1.000000
   53       -5.709515   1.000000
   54       -5.633108   1.000000
   55       -5.498000   1.000000
   56       -5.382872   1.000000
   57       -5.364212   1.000000
   58       -5.300202   1.000000
   59       -5.266205   1.000000
   60       -5.243296   1.000000
   61       -5.221536   1.000000
   62       -5.213408   1.000000
   63       -4.928193   1.000000
   64       -4.828028   1.000000
   65       -4.641850   1.000000
   66       -4.591826   1.000000
   67       -4.514237   1.000000
   68       -4.506711   1.000000
   69       -4.289857   1.000000
   70       -4.147391   1.000000
   71       -4.131206   1.000000
   72       -4.064560   1.000000
   73       -4.055623   1.000000
   74       -4.041881   1.000000
   75       -3.963985   1.000000
   76       -3.891563   1.000000
   77       -3.888611   1.000000
   78       -3.829720   1.000000
   79       -3.793313   1.000000
   80       -3.684984   1.000000
   81       -3.645092   1.000000
   82       -3.630810   1.000000
   83       -3.625216   1.000000
   84       -3.588013   1.000000
   85       -3.571662   1.000000
   86       -3.514442   1.000000
   87       -3.490711   1.000000
   88       -3.483545   1.000000
   89       -3.457604   1.000000
   90       -3.440416   1.000000
   91       -3.311228   1.000000
   92       -3.277162   1.000000
   93       -3.071397   1.000000
   94       -2.993315   1.000000
   95       -2.964697   1.000000
   96       -2.896976   1.000000
   97       -2.820088   1.000000
   98       -2.714821   1.000000
   99       -2.640621   1.000000
  100       -2.502171   1.000000
  101       -2.410255   1.000000
  102       -2.367387   1.000000
  103       -2.247369   1.000000
  104       -2.229087   1.000000
  105       -2.213212   1.000000
  106       -2.095790   1.000000
  107       -1.998760   1.000000
  108       -1.997156   1.000000
  109       -1.956167   1.000000
  110       -1.941822   1.000000
  111       -1.889518   1.000000
  112       -1.857473   1.000000
  113       -1.754142   1.000000
  114       -1.711627   1.000000
  115       -1.622900   1.000000
  116       -1.522733   1.000000
  117       -1.516680   1.000000
  118       -1.453404   1.000000
  119       -1.436755   1.000000
  120       -1.377338   1.000000
  121       -1.301568   1.000000
  122       -1.028706   1.000000
  123       -0.963520   1.000000
  124       -0.868284   1.000000
  125       -0.816377   1.000000
  126       -0.715851   1.000000
  127       -0.608145   1.000000
  128       -0.469771   1.000000
  129       -0.461210   1.000000
  130       -0.415371   1.000000
  131       -0.265518   1.000000
  132       -0.206606   1.000000
  133       -0.099353   1.000000
  134        0.110172   1.002201
  135        0.131205   1.004955
  136        0.245770   1.024536
  137        0.255831   1.010308
  138        0.327572   0.646725
  139        0.425832   0.008380
  140        0.434864  -0.010793
  141        0.564633  -0.004063
  142        0.598174  -0.001013
  143        0.640713  -0.000120
  144        0.649180  -0.000075
  145        0.688436  -0.000007
  146        0.700638  -0.000003
  147        0.743153  -0.000000
  148        0.748433  -0.000000
  149        0.802390  -0.000000
  150        0.849423  -0.000000
  151        1.098903  -0.000000
  152        1.113683  -0.000000
  153        1.136780  -0.000000
  154        1.158873  -0.000000
  155        1.217873  -0.000000
  156        1.253128  -0.000000
  157        1.310674  -0.000000
  158        1.324214  -0.000000
  159        1.340865  -0.000000
  160        1.353157  -0.000000
  161        1.421536  -0.000000
  162        1.436580  -0.000000
  163        1.439009  -0.000000
  164        1.460971  -0.000000
  165        1.504736  -0.000000
  166        1.568819  -0.000000
  167        1.592945  -0.000000
  168        1.605898  -0.000000
  169        1.616789  -0.000000
  170        1.660392  -0.000000
  171        1.676559  -0.000000
  172        1.685722  -0.000000
  173        1.744579  -0.000000
  174        1.786965  -0.000000
  175        1.803693  -0.000000
  176        1.839682  -0.000000
  177        1.862813  -0.000000
  178        1.965965  -0.000000
  179        2.003100  -0.000000
  180        2.013689  -0.000000

  0.4000000E+00  0.1262379E-14  0.3742002E-15  0.4444444E-01
    1      -13.828984   1.000000
    2      -13.586837   1.000000
    3      -12.668090   1.000000
    4      -12.410578   1.000000
    5      -11.824952   1.000000
    6      -11.806723   1.000000
    7      -11.740912   1.000000
    8      -11.338268   1.000000
    9      -11.266534   1.000000
   10      -11.191129   1.000000
   11      -11.165771   1.000000
   12      -11.027291   1.000000
   13      -10.888404   1.000000
   14      -10.798934   1.000000
   15      -10.749243   1.000000
   16      -10.682186   1.000000
   17      -10.657909   1.000000
   18      -10.367424   1.000000
   19      -10.214539   1.000000
   20       -9.857237   1.000000
   21       -9.575226   1.000000
   22       -9.457725   1.000000
   23       -9.311139   1.000000
   24       -9.254120   1.000000
   25       -9.116868   1.000000
   26       -8.821783   1.000000
   27       -8.435558   1.000000
   28       -8.291319   1.000000
   29       -8.237363   1.000000
   30       -8.038238   1.000000
   31       -7.865466   1.000000
   32       -7.765059   1.000000
   33       -7.764804   1.000000
   34       -7.731766   1.000000
   35       -7.597970   1.000000
   36       -7.485828   1.000000
   37       -7.314461   1.000000
   38       -7.313124   1.000000
   39       -7.079701   1.000000
   40       -6.915365   1.000000
   41       -6.803467   1.000000
   42       -6.543383   1.000000
   43       -6.484319   1.000000
   44       -6.439064   1.000000
   45       -6.388123   1.000000
   46       -6.330122   1.000000
   47       -6.172557   1.000000
   48       -6.072927   1.000000
   49       -5.996214   1.000000
   50       -5.886844   1.000000
   51       -5.866767   1.000000
   52       -5.830157   1.000000
   53       -5.733842   1.000000
   54       -5.699972   1.000000
   55       -5.636719   1.000000
   56       -5.466201   1.000000
   57       -5.371853   1.000000
   58       -5.234018   1.000000
   59       -5.176658   1.000000
   60       -5.121131   1.000000
   61       -5.083495   1.000000
   62       -4.992150   1.000000
   63       -4.958743   1.000000
   64       -4.818351   1.000000
   65       -4.708600   1.000000
   66       -4.655231   1.000000
   67       -4.577423   1.000000
   68       -4.404800   1.000000
   69       -4.368296   1.000000
   70       -4.278117   1.000000
   71       -4.237037   1.000000
   72       -4.146885   1.000000
   73       -4.070935   1.000000
   74       -4.043923   1.000000
   75       -4.007876   1.000000
   76       -3.986541   1.000000
   77       -3.845524   1.000000
   78       -3.800685   1.000000
   79       -3.782881   1.000000
   80       -3.760315   1.000000
   81       -3.710155   1.000000
   82       -3.701639   1.000000
   83       -3.658931   1.000000
   84       -3.603980   1.000000
   85       -3.519265   1.000000
   86       -3.472529   1.000000
   87       -3.460269   1.000000
   88       -3.407547   1.000000
   89       -3.335190   1.000000
   90       -3.289559   1.000000
   91       -3.246432   1.000000
   92       -3.223208   1.000000
   93       -3.139517   1.000000
   94       -3.061058   1.000000
   95       -3.052938   1.000000
   96       -2.957740   1.000000
   97       -2.839054   1.000000
   98       -2.755575   1.000000
   99       -2.664884   1.000000
  100       -2.536787   1.000000
  101       -2.401189   1.000000
  102       -2.379388   1.000000
  103       -2.256521   1.000000
  104       -2.201601   1.000000
  105       -2.168994   1.000000
  106       -2.149302   1.000000
  107       -2.047435   1.000000
  108       -2.015118   1.000000
  109       -1.965234   1.000000
  110       -1.945781   1.000000
  111       -1.824726   1.000000
  112       -1.642995   1.000000
  113       -1.631835   1.000000
  114       -1.593456   1.000000
  115       -1.531652   1.000000
  116       -1.473141   1.000000
  117       -1.435676   1.000000
  118       -1.310850   1.000000
  119       -1.259340   1.000000
  120       -1.162510   1.000000
  121       -1.105599   1.000000
  122       -1.083083   1.000000
  123       -1.081969   1.000000
  124       -1.056326   1.000000
  125       -0.942643   1.000000
  126       -0.789423   1.000000
  127       -0.769429   1.000000
  128       -0.691361   1.000000
  129       -0.635790   1.000000
  130       -0.570566   1.000000
  131       -0.434563   1.000000
  132       -0.397820   1.000000
  133       -0.109772   1.000000
  134       -0.076221   1.000000
  135        0.066438   1.000291
  136        0.216987   1.034987
  137        0.306159   0.804201
  138        0.325712   0.661579
  139        0.337790   0.562607
  140        0.467333  -0.035456
  141        0.543858  -0.008350
  142        0.565949  -0.003867
  143        0.628074  -0.000236
  144        0.666420  -0.000027
  145        0.703370  -0.000003
  146        0.714990  -0.000001
  147        0.770559  -0.000000
  148        0.833293  -0.000000
  149        0.969559  -0.000000
  150        0.986644  -0.000000
  151        1.087159  -0.000000
  152        1.160770  -0.000000
  153        1.208427  -0.000000
  154        1.215034  -0.000000
  155        1.260558  -0.000000
  156        1.295187  -0.000000
  157        1.397099  -0.000000
  158        1.425270  -0.000000
  159        1.451527  -0.000000
  160        1.460447  -0.000000
  161        1.468237  -0.000000
  162        1.478074  -0.000000
  163        1.496392  -0.000000
  164        1.533835  -0.000000
  165        1.588896  -0.000000
  166        1.605931  -0.000000
  167        1.606819  -0.000000
  168        1.628500  -0.000000
  169        1.643893  -0.000000
  170        1.695799  -0.000000
  171        1.716204  -0.000000
  172        1.731986  -0.000000
  173        1.787683  -0.000000
  174        1.805784  -0.000000
  175        1.813442  -0.000000
  176        1.829593  -0.000000
  177        1.883881  -0.000000
  178        1.907258  -0.000000
  179        1.980659  -0.000000
  180        2.010119  -0.000000

  0.3742002E-15  0.1262379E-14  0.1111111E+00  0.4444444E-01
    1      -13.978474   1.000000
    2      -12.861026   1.000000
    3      -12.796168   1.000000
    4      -12.758748   1.000000
    5      -11.995247   1.000000
    6      -11.795766   1.000000
    7      -11.635924   1.000000
    8      -11.524256   1.000000
    9      -11.507809   1.000000
   10      -11.368789   1.000000
   11      -11.276701   1.000000
   12      -11.006609   1.000000
   13      -10.981706   1.000000
   14      -10.711015   1.000000
   15      -10.524919   1.000000
   16      -10.466628   1.000000
   17      -10.234243   1.000000
   18      -10.153980   1.000000
   19      -10.041843   1.000000
   20       -9.777303   1.000000
   21       -9.629835   1.000000
   22       -9.533361   1.000000
   23       -9.513041   1.000000
   24       -9.376063   1.000000
   25       -9.014916   1.000000
   26       -8.843332   1.000000
   27       -8.655679   1.000000
   28       -8.632397   1.000000
   29       -8.432357   1.000000
   30       -8.146929   1.000000
   31       -8.029927   1.000000
   32       -7.917356   1.000000
   33       -7.779757   1.000000
   34       -7.693447   1.000000
   35       -7.414260   1.000000
   36       -7.325251   1.000000
   37       -7.004488   1.000000
   38       -6.886244   1.000000
   39       -6.769457   1.000000
   40       -6.687061   1.000000
   41       -6.652747   1.000000
   42       -6.651612   1.000000
   43       -6.608146   1.000000
   44       -6.443103   1.000000
   45       -6.422715   1.000000
   46       -6.302902   1.000000
   47       -6.196684   1.000000
   48       -6.184032   1.000000
   49       -6.170939   1.000000
   50       -6.121924   1.000000
   51       -5.812294   1.000000
   52       -5.760163   1.000000
   53       -5.713332   1.000000
   54       -5.662512   1.000000
   55       -5.636786   1.000000
   56       -5.607564   1.000000
   57       -5.426091   1.000000
   58       -5.370978   1.000000
   59       -5.304010   1.000000
   60       -5.244887   1.000000
   61       -5.175200   1.000000
   62       -5.034508   1.000000
   63       -4.697055   1.000000
   64       -4.678830   1.000000
   65       -4.563670   1.000000
   66       -4.563251   1.000000
   67       -4.531053   1.000000
   68       -4.455789   1.000000
   69       -4.366390   1.000000
   70       -4.146137   1.000000
   71       -4.101820   1.000000
   72       -4.073386   1.000000
   73       -4.050486   1.000000
   74       -4.011382   1.000000
   75       -3.963846   1.000000
   76       -3.948630   1.000000
   77       -3.945301   1.000000
   78       -3.909140   1.000000
   79       -3.864297   1.000000
   80       -3.787301   1.000000
   81       -3.773880   1.000000
   82       -3.738755   1.000000
   83       -3.687254   1.000000
   84       -3.656278   1.000000
   85       -3.584289   1.000000
   86       -3.563637   1.000000
   87       -3.538128   1.000000
   88       -3.493876   1.000000
   89       -3.477127   1.000000
   90       -3.390922   1.000000
   91       -3.381374   1.000000
   92       -3.192123   1.000000
   93       -3.030106   1.000000
   94       -2.942690   1.000000
   95       -2.924212   1.000000
   96       -2.898259   1.000000
   97       -2.738167   1.000000
   98       -2.683066   1.000000
   99       -2.542313   1.000000
  100       -2.472298   1.000000
  101       -2.424554   1.000000
  102       -2.422169   1.000000
  103       -2.299782   1.000000
  104       -2.260146   1.000000
  105       -2.232904   1.000000
  106       -2.123950   1.000000
  107       -2.042856   1.000000
  108       -2.013445   1.000000
  109       -1.997853   1.000000
  110       -1.973891   1.000000
  111       -1.856938   1.000000
  112       -1.847084   1.000000
  113       -1.750157   1.000000
  114       -1.746118   1.000000
  115       -1.708226   1.000000
  116       -1.636380   1.000000
  117       -1.587709   1.000000
  118       -1.527047   1.000000
  119       -1.422313   1.000000
  120       -1.343342   1.000000
  121       -1.291357   1.000000
  122       -1.028757   1.000000
  123       -0.929194   1.000000
  124       -0.805491   1.000000
  125       -0.738946   1.000000
  126       -0.675328   1.000000
  127       -0.563661   1.000000
  128       -0.535939   1.000000
  129       -0.495557   1.000000
  130       -0.250239   1.000000
  131       -0.189550   1.000000
  132       -0.160330   1.000000
  133        0.019856   1.000021
  134        0.186684   1.023748
  135        0.265308   0.989798
  136        0.274286   0.963059
  137        0.288379   0.905289
  138        0.332297   0.608280
  139        0.400025   0.104615
  140        0.423781   0.013700
  141        0.432377  -0.006179
  142        0.440627  -0.019693
  143        0.533460  -0.011468
  144        0.620426  -0.000349
  145        0.620524  -0.000347
  146        0.627447  -0.000244
  147        0.794541  -0.000000
  148        0.821277  -0.000000
  149        0.911359  -0.000000
  150        0.968560  -0.000000
  151        1.008780  -0.000000
  152        1.087222  -0.000000
  153        1.104742  -0.000000
  154        1.167791  -0.000000
  155        1.201692  -0.000000
  156        1.241791  -0.000000
  157        1.250281  -0.000000
  158        1.270860  -0.000000
  159        1.309425  -0.000000
  160        1.351527  -0.000000
  161        1.359214  -0.000000
  162        1.415101  -0.000000
  163        1.424424  -0.000000
  164        1.479236  -0.000000
  165        1.501084  -0.000000
  166        1.547876  -0.000000
  167        1.596010  -0.000000
  168        1.596323  -0.000000
  169        1.638711  -0.000000
  170        1.645015  -0.000000
  171        1.650076  -0.000000
  172        1.702352  -0.000000
  173        1.729578  -0.000000
  174        1.753668  -0.000000
  175        1.806993  -0.000000
  176        1.807515  -0.000000
  177        1.883867  -0.000000
  178        1.893245  -0.000000
  179        1.904749  -0.000000
  180        1.973432  -0.000000

  0.2000000E+00  0.1262379E-14  0.1111111E+00  0.4444444E-01
    1      -13.929803   1.000000
    2      -13.220043   1.000000
    3      -12.755074   1.000000
    4      -12.325914   1.000000
    5      -12.086309   1.000000
    6      -11.976204   1.000000
    7      -11.685393   1.000000
    8      -11.409180   1.000000
    9      -11.345926   1.000000
   10      -11.302908   1.000000
   11      -11.143128   1.000000
   12      -11.108429   1.000000
   13      -10.853725   1.000000
   14      -10.710415   1.000000
   15      -10.672457   1.000000
   16      -10.566751   1.000000
   17      -10.521924   1.000000
   18      -10.277643   1.000000
   19      -10.088407   1.000000
   20       -9.642630   1.000000
   21       -9.552741   1.000000
   22       -9.512889   1.000000
   23       -9.413122   1.000000
   24       -9.341200   1.000000
   25       -9.199913   1.000000
   26       -8.871495   1.000000
   27       -8.527653   1.000000
   28       -8.479261   1.000000
   29       -8.204566   1.000000
   30       -8.130416   1.000000
   31       -8.119132   1.000000
   32       -7.949234   1.000000
   33       -7.773272   1.000000
   34       -7.564159   1.000000
   35       -7.532422   1.000000
   36       -7.369567   1.000000
   37       -7.130456   1.000000
   38       -6.963237   1.000000
   39       -6.883751   1.000000
   40       -6.717551   1.000000
   41       -6.711741   1.000000
   42       -6.650416   1.000000
   43       -6.574627   1.000000
   44       -6.499243   1.000000
   45       -6.456283   1.000000
   46       -6.391698   1.000000
   47       -6.277085   1.000000
   48       -6.135137   1.000000
   49       -6.103948   1.000000
   50       -5.935919   1.000000
   51       -5.869843   1.000000
   52       -5.803359   1.000000
   53       -5.715550   1.000000
   54       -5.654178   1.000000
   55       -5.473350   1.000000
   56       -5.374195   1.000000
   57       -5.321446   1.000000
   58       -5.285344   1.000000
   59       -5.251273   1.000000
   60       -5.234215   1.000000
   61       -5.165633   1.000000
   62       -5.152981   1.000000
   63       -4.903888   1.000000
   64       -4.787110   1.000000
   65       -4.619015   1.000000
   66       -4.568413   1.000000
   67       -4.507817   1.000000
   68       -4.437019   1.000000
   69       -4.289701   1.000000
   70       -4.166592   1.000000
   71       -4.133310   1.000000
   72       -4.102817   1.000000
   73       -4.040480   1.000000
   74       -4.035377   1.000000
   75       -3.990365   1.000000
   76       -3.984785   1.000000
   77       -3.900885   1.000000
   78       -3.874283   1.000000
   79       -3.848676   1.000000
   80       -3.778380   1.000000
   81       -3.736435   1.000000
   82       -3.718323   1.000000
   83       -3.691545   1.000000
   84       -3.648499   1.000000
   85       -3.604251   1.000000
   86       -3.587660   1.000000
   87       -3.554775   1.000000
   88       -3.508628   1.000000
   89       -3.443170   1.000000
   90       -3.353846   1.000000
   91       -3.297700   1.000000
   92       -3.229790   1.000000
   93       -3.073744   1.000000
   94       -2.965818   1.000000
   95       -2.902299   1.000000
   96       -2.873203   1.000000
   97       -2.828107   1.000000
   98       -2.701683   1.000000
   99       -2.659963   1.000000
  100       -2.502727   1.000000
  101       -2.424336   1.000000
  102       -2.352691   1.000000
  103       -2.268380   1.000000
  104       -2.259230   1.000000
  105       -2.216650   1.000000
  106       -2.137916   1.000000
  107       -2.035703   1.000000
  108       -2.025779   1.000000
  109       -1.971236   1.000000
  110       -1.942400   1.000000
  111       -1.874850   1.000000
  112       -1.782606   1.000000
  113       -1.722506   1.000000
  114       -1.698263   1.000000
  115       -1.646059   1.000000
  116       -1.597499   1.000000
  117       -1.545456   1.000000
  118       -1.458150   1.000000
  119       -1.393834   1.000000
  120       -1.359039   1.000000
  121       -1.278105   1.000000
  122       -1.082013   1.000000
  123       -0.921428   1.000000
  124       -0.905901   1.000000
  125       -0.806661   1.000000
  126       -0.761825   1.000000
  127       -0.638990   1.000000
  128       -0.635874   1.000000
  129       -0.397130   1.000000
  130       -0.359992   1.000000
  131       -0.225944   1.000000
  132       -0.071370   1.000000
  133        0.053042   1.000144
  134        0.129039   1.004581
  135        0.149659   1.009206
  136        0.159150   1.012213
  137        0.208758   1.032987
  138        0.270299   0.975860
  139        0.365513   0.332051
  140        0.442707  -0.022330
  141        0.505463  -0.022949
  142        0.520888  -0.016147
  143        0.544040  -0.008301
  144        0.618792  -0.000379
  145        0.656872  -0.000048
  146        0.663322  -0.000033
  147        0.786517  -0.000000
  148        0.904062  -0.000000
  149        0.926587  -0.000000
  150        0.990410  -0.000000
  151        1.009555  -0.000000
  152        1.063972  -0.000000
  153        1.183271  -0.000000
  154        1.215924  -0.000000
  155        1.248128  -0.000000
  156        1.298729  -0.000000
  157        1.308535  -0.000000
  158        1.337464  -0.000000
  159        1.341258  -0.000000
  160        1.351275  -0.000000
  161        1.375572  -0.000000
  162        1.405721  -0.000000
  163        1.428798  -0.000000
  164        1.506435  -0.000000
  165        1.514020  -0.000000
  166        1.538146  -0.000000
  167        1.570143  -0.000000
  168        1.591680  -0.000000
  169        1.646148  -0.000000
  170        1.668344  -0.000000
  171        1.682037  -0.000000
  172        1.692611  -0.000000
  173        1.723200  -0.000000