 running on   72 total cores
 distrk:  each k-point on   72 cores,    1 groups
 distr:  one band on   12 cores,    6 groups
 using from now: INCAR     
 vasp.5.4.4.18Apr17-6-g9f103f2a35 (build Dec  7 2020 12:43:57) complex           
 POSCAR found type information on POSCAR  Mo V  B  H 
 POSCAR found :  4 types and      74 ions
 scaLAPACK will be used
 LDA part: xc-table for Pade appr. of Perdew
 POSCAR, INCAR and KPOINTS ok, starting setup
 resort distribution
 resort distribution
 resort distribution
 resort distribution
 resort distribution
 resort distribution
 resort distribution
 resort distribution
 resort distribution
 resort distribution
 resort distribution
 resort distribution
 resort distribution
 resort distribution
 resort distribution
 resort distribution
 resort distribution
 resort distribution
 resort distribution
 resort distribution
 resort distribution
 resort distribution
 resort distribution
 resort distribution
 resort distribution
 resort distribution
 resort distribution
 resort distribution
 resort distribution
 resort distribution
 resort distribution
 resort distribution
 resort distribution
 resort distribution
 resort distribution
 resort distribution
 resort distribution
 resort distribution
 resort distribution
 resort distribution
 resort distribution
 resort distribution
 resort distribution
 resort distribution
 resort distribution
 resort distribution
 resort distribution
 resort distribution
 resort distribution
 resort distribution
 resort distribution
 resort distribution
 resort distribution
 resort distribution
 resort distribution
 resort distribution
 resort distribution
 resort distribution
 resort distribution
 resort distribution
 resort distribution
 resort distribution
 resort distribution
 resort distribution
 resort distribution
 resort distribution
 resort distribution
 resort distribution
 resort distribution
 resort distribution
 resort distribution
 resort distribution
 FFT: planning ...
 WAVECAR not read
 augmentation electrons   278.02613417545501     
 soft         electrons   0.0000000000000000     
 augmentation electrons   278.02613417545501     
 soft         electrons   0.0000000000000000     
 augmentation electrons   278.02613417545501     
 soft         electrons   0.0000000000000000     
 augmentation electrons   278.02613417545501     
 soft         electrons   0.0000000000000000     
 augmentation electrons   278.02613417545501     
 soft         electrons   0.0000000000000000     
 augmentation electrons   278.02613417545501     
 soft         electrons   0.0000000000000000     
 augmentation electrons   278.02613417545501     
 soft         electrons   0.0000000000000000     
 augmentation electrons   278.02613417545501     
 soft         electrons   0.0000000000000000     
 augmentation electrons   278.02613417545501     
 soft         electrons   0.0000000000000000     
 augmentation electrons   278.02613417545501     
 soft         electrons   0.0000000000000000     
 augmentation electrons   278.02613417545501     
 soft         electrons   0.0000000000000000     
 augmentation electrons   278.02613417545501     
 soft         electrons   0.0000000000000000     
 augmentation electrons   278.02613417545501     
 soft         electrons   0.0000000000000000     
 augmentation electrons   278.02613417545501     
 soft         electrons   0.0000000000000000     
 augmentation electrons   278.02613417545501     
 soft         electrons   0.0000000000000000     
 augmentation electrons   278.02613417545501     
 soft         electrons   0.0000000000000000     
 augmentation electrons   278.02613417545501     
 soft         electrons   0.0000000000000000     
 augmentation electrons   278.02613417545501     
 soft         electrons   0.0000000000000000     
 augmentation electrons   278.02613417545501     
 soft         electrons   0.0000000000000000     
 augmentation electrons   278.02613417545501     
 soft         electrons   0.0000000000000000     
 augmentation electrons   278.02613417545501     
 soft         electrons   0.0000000000000000     
 augmentation electrons   278.02613417545501     
 soft         electrons   0.0000000000000000     
 augmentation electrons   278.02613417545501     
 soft         electrons   0.0000000000000000     
 augmentation electrons   278.02613417545501     
 augmentation electrons   278.02613417545501     
 soft         electrons   0.0000000000000000     
 augmentation electrons   278.02613417545501     
 soft         electrons   0.0000000000000000     
 augmentation electrons   278.02613417545501     
 soft         electrons   0.0000000000000000     
 augmentation electrons   278.02613417545501     
 soft         electrons   0.0000000000000000     
 augmentation electrons   278.02613417545501     
 soft         electrons   0.0000000000000000     
 augmentation electrons   278.02613417545501     
 soft         electrons   0.0000000000000000     
 augmentation electrons   278.02613417545501     
 soft         electrons   0.0000000000000000     
 augmentation electrons   278.02613417545501     
 soft         electrons   0.0000000000000000     
 augmentation electrons   278.02613417545501     
 soft         electrons   0.0000000000000000     
 augmentation electrons   278.02613417545501     
 soft         electrons   0.0000000000000000     
 augmentation electrons   278.02613417545501     
 soft         electrons   0.0000000000000000     
 augmentation electrons   278.02613417545501     
 soft         electrons   0.0000000000000000     
 augmentation electrons   278.02613417545501     
 soft         electrons   0.0000000000000000     
 augmentation electrons   278.02613417545501     
 soft         electrons   0.0000000000000000     
 augmentation electrons   278.02613417545501     
 soft         electrons   0.0000000000000000     
 augmentation electrons   278.02613417545501     
 soft         electrons   0.0000000000000000     
 augmentation electrons   278.02613417545501     
 soft         electrons   0.0000000000000000     
 augmentation electrons   278.02613417545501     
 soft         electrons   0.0000000000000000     
 augmentation electrons   278.02613417545501     
 soft         electrons   0.0000000000000000     
 augmentation electrons   278.02613417545501     
 soft         electrons   0.0000000000000000     
 augmentation electrons   278.02613417545501     
 soft         electrons   0.0000000000000000     
 augmentation electrons   278.02613417545501     
 soft         electrons   0.0000000000000000     
 augmentation electrons   278.02613417545501     
 soft         electrons   0.0000000000000000     
 augmentation electrons   278.02613417545501     
 soft         electrons   0.0000000000000000     
 augmentation electrons   278.02613417545501     
 soft         electrons   0.0000000000000000     
 augmentation electrons   278.02613417545501     
 soft         electrons   0.0000000000000000     
 augmentation electrons   278.02613417545501     
 soft         electrons   0.0000000000000000     
 augmentation electrons   278.02613417545501     
 soft         electrons   0.0000000000000000     
 augmentation electrons   278.02613417545501     
 soft         electrons   0.0000000000000000     
 augmentation electrons   278.02613417545501     
 soft         electrons   0.0000000000000000     
 augmentation electrons   278.02613417545501     
 soft         electrons   0.0000000000000000     
 augmentation electrons   278.02613417545501     
 soft         electrons   0.0000000000000000     
 augmentation electrons   278.02613417545501     
 soft         electrons   0.0000000000000000     
 augmentation electrons   278.02613417545501     
 soft         electrons   0.0000000000000000     
 augmentation electrons   278.02613417545501     
 soft         electrons   0.0000000000000000     
 soft         electrons   0.0000000000000000     
 augmentation electrons   278.02613417545501     
 soft         electrons   0.0000000000000000     
 augmentation electrons   278.02613417545501     
 soft         electrons   0.0000000000000000     
 augmentation electrons   278.02613417545501     
 soft         electrons   0.0000000000000000     
 augmentation electrons   278.02613417545501     
 soft         electrons   0.0000000000000000     
 augmentation electrons   278.02613417545501     
 soft         electrons   0.0000000000000000     
 augmentation electrons   278.02613417545501     
 soft         electrons   0.0000000000000000     
 augmentation electrons   278.02613417545501     
 soft         electrons   0.0000000000000000     
 augmentation electrons   278.02613417545501     
 soft         electrons   0.0000000000000000     
 augmentation electrons   278.02613417545501     
 soft         electrons   0.0000000000000000     
 augmentation electrons   278.02613417545501     
 soft         electrons   0.0000000000000000     
 augmentation electrons   278.02613417545501     
 augmentation electrons   278.02613417545501     
 soft         electrons   0.0000000000000000     
 augmentation electrons   278.02613417545501     
 soft         electrons   0.0000000000000000     
 soft         electrons   0.0000000000000000     
 total        electrons   278.02613417545501     
 total        electrons   278.02613417545501     
 total        electrons   278.02613417545501     
 total        electrons   278.02613417545501     
 total        electrons   278.02613417545501     
 total        electrons   278.02613417545501     
 total        electrons   278.02613417545501     
 total        electrons   278.02613417545501     
 total        electrons   278.02613417545501     
 total        electrons   278.02613417545501     
 total        electrons   278.02613417545501     
 total        electrons   278.02613417545501     
 total        electrons   278.02613417545501     
 total        electrons   278.02613417545501     
 total        electrons   278.02613417545501     
 total        electrons   278.02613417545501     
 total        electrons   278.02613417545501     
 total        electrons   278.02613417545501     
 total        electrons   278.02613417545501     
 total        electrons   278.02613417545501     
 total        electrons   278.02613417545501     
 total        electrons   278.02613417545501     
 total        electrons   278.02613417545501     
 total        electrons   278.02613417545501     
 total        electrons   278.02613417545501     
 total        electrons   278.02613417545501     
 total        electrons   278.02613417545501     
 total        electrons   278.02613417545501     
 total        electrons   278.02613417545501     
 total        electrons   278.02613417545501     
 total        electrons   278.02613417545501     
 total        electrons   278.02613417545501     
 total        electrons   278.02613417545501     
 total        electrons   278.02613417545501     
 total        electrons   278.02613417545501     
 total        electrons   278.02613417545501     
 total        electrons   278.02613417545501     
 total        electrons   278.02613417545501     
 total        electrons   278.02613417545501     
 total        electrons   278.02613417545501     
 total        electrons   278.02613417545501     
 total        electrons   278.02613417545501     
 total        electrons   278.02613417545501     
 total        electrons   278.02613417545501     
 total        electrons   278.02613417545501     
 total        electrons   278.02613417545501     
 total        electrons   278.02613417545501     
 total        electrons   278.02613417545501     
 total        electrons   278.02613417545501     
 total        electrons   278.02613417545501     
 total        electrons   278.02613417545501     
 total        electrons   278.02613417545501     
 total        electrons   278.02613417545501     
 total        electrons   278.02613417545501     
 total        electrons   278.02613417545501     
 total        electrons   278.02613417545501     
 total        electrons   278.02613417545501     
 total        electrons   278.02613417545501     
 total        electrons   278.02613417545501     
 total        electrons   278.02613417545501     
 total        electrons   278.02613417545501     
 total        electrons   278.02613417545501     
 total        electrons   278.02613417545501     
 total        electrons   278.02613417545501     
 total        electrons   278.02613417545501     
 total        electrons   278.02613417545501     
 total        electrons   278.02613417545501     
 total        electrons   278.02613417545501     
 total        electrons   278.02613417545501     
 total        electrons   278.02613417545501     
 total        electrons   278.02613417545501     
 total        electrons   278.02613417545501     
 augmentation electrons   864.17172981569820     
 soft         electrons   0.0000000000000000     
 augmentation electrons   864.17172981569820     
 soft         electrons   0.0000000000000000     
 augmentation electrons   864.17172981569820     
 soft         electrons   0.0000000000000000     
 augmentation electrons   864.17172981569820     
 soft         electrons   0.0000000000000000     
 augmentation electrons   864.17172981569820     
 soft         electrons   0.0000000000000000     
 augmentation electrons   864.17172981569820     
 soft         electrons   0.0000000000000000     
 augmentation electrons   864.17172981569820     
 soft         electrons   0.0000000000000000     
 augmentation electrons   864.17172981569820     
 soft         electrons   0.0000000000000000     
 augmentation electrons   864.17172981569820     
 soft         electrons   0.0000000000000000     
 augmentation electrons   864.17172981569820     
 soft         electrons   0.0000000000000000     
 augmentation electrons   864.17172981569820     
 soft         electrons   0.0000000000000000     
 augmentation electrons   864.17172981569820     
 soft         electrons   0.0000000000000000     
 augmentation electrons   864.17172981569820     
 soft         electrons   0.0000000000000000     
 augmentation electrons   864.17172981569820     
 soft         electrons   0.0000000000000000     
 augmentation electrons   864.17172981569820     
 soft         electrons   0.0000000000000000     
 augmentation electrons   864.17172981569820     
 soft         electrons   0.0000000000000000     
 augmentation electrons   864.17172981569820     
 soft         electrons   0.0000000000000000     
 augmentation electrons   864.17172981569820     
 soft         electrons   0.0000000000000000     
 augmentation electrons   864.17172981569820     
 soft         electrons   0.0000000000000000     
 augmentation electrons   864.17172981569820     
 soft         electrons   0.0000000000000000     
 augmentation electrons   864.17172981569820     
 soft         electrons   0.0000000000000000     
 augmentation electrons   864.17172981569820     
 soft         electrons   0.0000000000000000     
 augmentation electrons   864.17172981569820     
 soft         electrons   0.0000000000000000     
 augmentation electrons   864.17172981569820     
 soft         electrons   0.0000000000000000     
 augmentation electrons   864.17172981569820     
 soft         electrons   0.0000000000000000     
 augmentation electrons   864.17172981569820     
 soft         electrons   0.0000000000000000     
 augmentation electrons   864.17172981569820     
 soft         electrons   0.0000000000000000     
 augmentation electrons   864.17172981569820     
 soft         electrons   0.0000000000000000     
 augmentation electrons   864.17172981569820     
 soft         electrons   0.0000000000000000     
 augmentation electrons   864.17172981569820     
 soft         electrons   0.0000000000000000     
 augmentation electrons   864.17172981569820     
 soft         electrons   0.0000000000000000     
 augmentation electrons   864.17172981569820     
 soft         electrons   0.0000000000000000     
 augmentation electrons   864.17172981569820     
 soft         electrons   0.0000000000000000     
 augmentation electrons   864.17172981569820     
 soft         electrons   0.0000000000000000     
 augmentation electrons   864.17172981569820     
 soft         electrons   0.0000000000000000     
 augmentation electrons   864.17172981569820     
 soft         electrons   0.0000000000000000     
 augmentation electrons   864.17172981569820     
 soft         electrons   0.0000000000000000     
 augmentation electrons   864.17172981569820     
 soft         electrons   0.0000000000000000     
 augmentation electrons   864.17172981569820     
 soft         electrons   0.0000000000000000     
 augmentation electrons   864.17172981569820     
 soft         electrons   0.0000000000000000     
 augmentation electrons   864.17172981569820     
 soft         electrons   0.0000000000000000     
 augmentation electrons   864.17172981569820     
 soft         electrons   0.0000000000000000     
 augmentation electrons   864.17172981569820     
 soft         electrons   0.0000000000000000     
 augmentation electrons   864.17172981569820     
 soft         electrons   0.0000000000000000     
 augmentation electrons   864.17172981569820     
 soft         electrons   0.0000000000000000     
 augmentation electrons   864.17172981569820     
 soft         electrons   0.0000000000000000     
 augmentation electrons   864.17172981569820     
 soft         electrons   0.0000000000000000     
 augmentation electrons   864.17172981569820     
 soft         electrons   0.0000000000000000     
 augmentation electrons   864.17172981569820     
 soft         electrons   0.0000000000000000     
 augmentation electrons   864.17172981569820     
 soft         electrons   0.0000000000000000     
 augmentation electrons   864.17172981569820     
 soft         electrons   0.0000000000000000     
 augmentation electrons   864.17172981569820     
 soft         electrons   0.0000000000000000     
 augmentation electrons   864.17172981569820     
 soft         electrons   0.0000000000000000     
 augmentation electrons   864.17172981569820     
 soft         electrons   0.0000000000000000     
 augmentation electrons   864.17172981569820     
 soft         electrons   0.0000000000000000     
 augmentation electrons   864.17172981569820     
 soft         electrons   0.0000000000000000     
 augmentation electrons   864.17172981569820     
 soft         electrons   0.0000000000000000     
 augmentation electrons   864.17172981569820     
 soft         electrons   0.0000000000000000     
 augmentation electrons   864.17172981569820     
 soft         electrons   0.0000000000000000     
 augmentation electrons   864.17172981569820     
 soft         electrons   0.0000000000000000     
 augmentation electrons   864.17172981569820     
 soft         electrons   0.0000000000000000     
 augmentation electrons   864.17172981569820     
 soft         electrons   0.0000000000000000     
 augmentation electrons   864.17172981569820     
 soft         electrons   0.0000000000000000     
 augmentation electrons   864.17172981569820     
 soft         electrons   0.0000000000000000     
 augmentation electrons   864.17172981569820     
 soft         electrons   0.0000000000000000     
 augmentation electrons   864.17172981569820     
 soft         electrons   0.0000000000000000     
 augmentation electrons   864.17172981569820     
 soft         electrons   0.0000000000000000     
 augmentation electrons   864.17172981569820     
 soft         electrons   0.0000000000000000     
 augmentation electrons   864.17172981569820     
 soft         electrons   0.0000000000000000     
 augmentation electrons   864.17172981569820     
 soft         electrons   0.0000000000000000     
 augmentation electrons   864.17172981569820     
 soft         electrons   0.0000000000000000     
 augmentation electrons   864.17172981569820     
 soft         electrons   0.0000000000000000     
 total        electrons   864.17172981569820     
 total        electrons   864.17172981569820     
 total        electrons   864.17172981569820     
 total        electrons   864.17172981569820     
 total        electrons   864.17172981569820     
 total        electrons   864.17172981569820     
 total        electrons   864.17172981569820     
 total        electrons   864.17172981569820     
 total        electrons   864.17172981569820     
 total        electrons   864.17172981569820     
 total        electrons   864.17172981569820     
 total        electrons   864.17172981569820     
 total        electrons   864.17172981569820     
 total        electrons   864.17172981569820     
 total        electrons   864.17172981569820     
 total        electrons   864.17172981569820     
 total        electrons   864.17172981569820     
 total        electrons   864.17172981569820     
 total        electrons   864.17172981569820     
 total        electrons   864.17172981569820     
 total        electrons   864.17172981569820     
 total        electrons   864.17172981569820     
 total        electrons   864.17172981569820     
 total        electrons   864.17172981569820     
 total        electrons   864.17172981569820     
 total        electrons   864.17172981569820     
 total        electrons   864.17172981569820     
 total        electrons   864.17172981569820     
 total        electrons   864.17172981569820     
 total        electrons   864.17172981569820     
 total        electrons   864.17172981569820     
 total        electrons   864.17172981569820     
 total        electrons   864.17172981569820     
 total        electrons   864.17172981569820     
 total        electrons   864.17172981569820     
 total        electrons   864.17172981569820     
 total        electrons   864.17172981569820     
 total        electrons   864.17172981569820     
 total        electrons   864.17172981569820     
 total        electrons   864.17172981569820     
 total        electrons   864.17172981569820     
 total        electrons   864.17172981569820     
 total        electrons   864.17172981569820     
 total        electrons   864.17172981569820     
 total        electrons   864.17172981569820     
 total        electrons   864.17172981569820     
 total        electrons   864.17172981569820     
 total        electrons   864.17172981569820     
 total        electrons   864.17172981569820     
 total        electrons   864.17172981569820     
 total        electrons   864.17172981569820     
 total        electrons   864.17172981569820     
 total        electrons   864.17172981569820     
 total        electrons   864.17172981569820     
 total        electrons   864.17172981569820     
 total        electrons   864.17172981569820     
 total        electrons   864.17172981569820     
 total        electrons   864.17172981569820     
 total        electrons   864.17172981569820     
 total        electrons   864.17172981569820     
 total        electrons   864.17172981569820     
 total        electrons   864.17172981569820     
 total        electrons   864.17172981569820     
 total        electrons   864.17172981569820     
 total        electrons   864.17172981569820     
 total        electrons   864.17172981569820     
 total        electrons   864.17172981569820     
 total        electrons   864.17172981569820     
 total        electrons   864.17172981569820     
 total        electrons   864.17172981569820     
 total        electrons   864.17172981569820     
 total        electrons   864.17172981569820     
 entering main loop
       N       E                     dE             d eps       ncg     rms          rms(c)
DAV:   1     0.303943622386E+04    0.30394E+04   -0.95706E+04  8280   0.130E+03
DAV:   2     0.584469672481E+02   -0.29810E+04   -0.27638E+04  8844   0.336E+02
DAV:   3    -0.639218358684E+03   -0.69767E+03   -0.67313E+03 11988   0.195E+02
DAV:   4    -0.703660886100E+03   -0.64443E+02   -0.61901E+02 13572   0.662E+01
DAV:   5    -0.707095338304E+03   -0.34345E+01   -0.32851E+01 13848   0.157E+01    0.142E+02
RMM:   6    -0.646635196013E+03    0.60460E+02   -0.14435E+03  9716   0.115E+02    0.724E+01
RMM:   7    -0.681982697696E+03   -0.35348E+02   -0.78776E+02 10075   0.950E+01    0.545E+01
RMM:   8    -0.595689124116E+03    0.86294E+02   -0.89451E+01  8536   0.350E+01    0.259E+01
RMM:   9    -0.598623482003E+03   -0.29344E+01   -0.56921E+01  8802   0.243E+01    0.263E+01
RMM:  10    -0.584969064516E+03    0.13654E+02   -0.18081E+01 10603   0.104E+01    0.177E+01
RMM:  11    -0.584932290683E+03    0.36774E-01   -0.47900E+00  9384   0.503E+00    0.160E+01
RMM:  12    -0.584918356894E+03    0.13934E-01   -0.12422E+00 10793   0.235E+00    0.146E+01
RMM:  13    -0.583844646939E+03    0.10737E+01   -0.23050E+00  9131   0.487E+00    0.103E+01
RMM:  14    -0.584441139807E+03   -0.59649E+00   -0.45271E+00  8647   0.664E+00    0.896E+00
RMM:  15    -0.583599777521E+03    0.84136E+00   -0.16615E+00  8809   0.449E+00    0.359E+00
RMM:  16    -0.583605424115E+03   -0.56466E-02   -0.89139E-01  9826   0.234E+00    0.298E+00
RMM:  17    -0.583542048065E+03    0.63376E-01   -0.33219E-01 10045   0.140E+00    0.178E+00
RMM:  18    -0.583526154038E+03    0.15894E-01   -0.20827E-01 10551   0.944E-01    0.149E+00
RMM:  19    -0.583501395142E+03    0.24759E-01   -0.84127E-02  8868   0.886E-01    0.872E-01
RMM:  20    -0.583502752688E+03   -0.13575E-02   -0.91387E-02 10810   0.580E-01    0.913E-01
RMM:  21    -0.583498990730E+03    0.37620E-02   -0.16957E-02  9093   0.358E-01    0.722E-01
RMM:  22    -0.583497859322E+03    0.11314E-02   -0.87001E-03  8821   0.249E-01    0.554E-01
RMM:  23    -0.583498347370E+03   -0.48805E-03   -0.77606E-03  9673   0.226E-01    0.332E-01
RMM:  24    -0.583498866924E+03   -0.51955E-03   -0.74153E-03  9725   0.232E-01    0.276E-01
RMM:  25    -0.583499009537E+03   -0.14261E-03   -0.47946E-03 11238   0.132E-01    0.186E-01
RMM:  26    -0.583499414339E+03   -0.40480E-03   -0.14203E-03  9778   0.970E-02    0.128E-01
RMM:  27    -0.583499901978E+03   -0.48764E-03   -0.84750E-04  9894   0.709E-02    0.109E-01
RMM:  28    -0.583501537291E+03   -0.16353E-02   -0.12019E-03 10416   0.790E-02    0.662E-02
RMM:  29    -0.583502078472E+03   -0.54118E-03   -0.36411E-04 10646   0.366E-02    0.630E-02
RMM:  30    -0.583502372194E+03   -0.29372E-03   -0.14390E-04  9979   0.294E-02    0.395E-02
RMM:  31    -0.583502548683E+03   -0.17649E-03   -0.96063E-05 10275   0.235E-02    0.216E-02
RMM:  32    -0.583502739876E+03   -0.19119E-03   -0.66391E-05 10342   0.143E-02    0.191E-02
RMM:  33    -0.583502880070E+03   -0.14019E-03   -0.26919E-05  8132   0.113E-02    0.109E-02
RMM:  34    -0.583502955111E+03   -0.75041E-04   -0.19622E-05  7530   0.837E-03    0.114E-02
RMM:  35    -0.583502997566E+03   -0.42455E-04   -0.71516E-06  6301   0.762E-03    0.966E-03
RMM:  36    -0.583503111004E+03   -0.11344E-03   -0.10142E-05  6225   0.585E-03    0.639E-03
RMM:  37    -0.583503228132E+03   -0.11713E-03   -0.69682E-06  6273   0.657E-03    0.100E-02
RMM:  38    -0.583503276045E+03   -0.47913E-04   -0.30989E-06  5751   0.440E-03    0.944E-03
RMM:  39    -0.583503335272E+03   -0.59227E-04   -0.46829E-06  6148   0.491E-03    0.560E-03
RMM:  40    -0.583503370169E+03   -0.34898E-04   -0.24126E-06  5622   0.276E-03    0.277E-03
RMM:  41    -0.583503411396E+03   -0.41227E-04   -0.32634E-06  5650   0.398E-03    0.288E-03
RMM:  42    -0.583503434748E+03   -0.23352E-04   -0.23171E-06  5526   0.316E-03    0.304E-03
RMM:  43    -0.583503439808E+03   -0.50595E-05   -0.55625E-07  4846   0.204E-03    0.139E-03
RMM:  44    -0.583503445279E+03   -0.54711E-05   -0.58778E-07  4847   0.211E-03    0.123E-03
RMM:  45    -0.583503447575E+03   -0.22963E-05   -0.26893E-07  3676   0.120E-03    0.436E-04
RMM:  46    -0.583503449940E+03   -0.23645E-05   -0.24847E-07  3611   0.112E-03    0.599E-04
RMM:  47    -0.583503451255E+03   -0.13157E-05   -0.19602E-07  3657   0.101E-03    0.168E-04
RMM:  48    -0.583503451424E+03   -0.16838E-06   -0.93627E-08  2948   0.833E-04
   1 F= -.58350345E+03 E0= -.58350358E+03  d E =-.583503E+03
 curvature:   0.00 expect dE= 0.000E+00 dE for cont linesearch  0.000E+00
 trial: gam= 0.00000 g(F)=  0.464E-04 g(S)=  0.000E+00 ort = 0.000E+00 (trialstep = 0.100E+01)
 search vector abs. value=  0.464E-04
 bond charge predicted
       N       E                     dE             d eps       ncg     rms          rms(c)
DAV:   1    -0.583503490574E+03   -0.39319E-04   -0.72962E-04  9132   0.516E-02    0.631E-03
RMM:   2    -0.583503491495E+03   -0.92040E-06   -0.10634E-05  6483   0.934E-03    0.567E-03
RMM:   3    -0.583503492979E+03   -0.14847E-05   -0.29429E-06  5683   0.622E-03    0.111E-02
RMM:   4    -0.583503491914E+03    0.10658E-05   -0.21157E-06  5470   0.608E-03    0.587E-03
RMM:   5    -0.583503491579E+03    0.33459E-06   -0.10668E-06  4946   0.475E-03
   2 F= -.58350349E+03 E0= -.58350362E+03  d E =-.401553E-04
 trial-energy change:   -0.000040  1 .order   -0.000040   -0.000046   -0.000033
 step:   3.5311(harm=  3.5311)  dis= 0.00332  next Energy=  -583.503533 (dE=-0.819E-04)
 bond charge predicted
       N       E                     dE             d eps       ncg     rms          rms(c)
DAV:   1    -0.583503529071E+03   -0.37158E-04   -0.46728E-03  8928   0.131E-01    0.162E-02
RMM:   2    -0.583503535694E+03   -0.66226E-05   -0.67150E-05  8528   0.231E-02    0.149E-02
RMM:   3    -0.583503543737E+03   -0.80430E-05   -0.21184E-05  8408   0.142E-02    0.265E-02
RMM:   4    -0.583503540321E+03    0.34163E-05   -0.14230E-05  7344   0.125E-02    0.213E-02
RMM:   5    -0.583503535453E+03    0.48671E-05   -0.68980E-06  6354   0.106E-02    0.688E-03
RMM:   6    -0.583503535233E+03    0.22052E-06   -0.24990E-06  5577   0.563E-03
   3 F= -.58350354E+03 E0= -.58350366E+03  d E =-.838092E-04
 curvature:  -1.77 expect dE=-0.788E-04 dE for cont linesearch -0.800E-08
 trial: gam= 0.95179 g(F)=  0.446E-04 g(S)=  0.000E+00 ort = 0.459E-06 (trialstep = 0.798E+00)
 search vector abs. value=  0.876E-04
 bond charge predicted
       N       E                     dE             d eps       ncg     rms          rms(c)
DAV:   1    -0.583503567832E+03   -0.32379E-04   -0.86026E-04  9180   0.578E-02    0.690E-03
RMM:   2    -0.583503570847E+03   -0.30149E-05   -0.18339E-05  7705   0.135E-02    0.129E-02
RMM:   3    -0.583503569303E+03    0.15438E-05   -0.46347E-06  6125   0.841E-03    0.548E-03
RMM:   4    -0.583503570012E+03   -0.70866E-06   -0.30224E-06  5678   0.566E-03    0.795E-03
RMM:   5    -0.583503569539E+03    0.47264E-06   -0.15546E-06  5063   0.552E-03
   4 F= -.58350357E+03 E0= -.58350369E+03  d E =-.343064E-04
 ZBRENT: can't locate minimum, use default step
 trial-energy change:   -0.000034  1 .order   -0.000034   -0.000036   -0.000032
 step:   3.1939(harm=  7.5000)  dis= 0.00001  next Energy=  -583.503704 (dE=-0.169E-03)
 bond charge predicted
       N       E                     dE             d eps       ncg     rms          rms(c)
DAV:   1    -0.583503640171E+03   -0.70159E-04   -0.77529E-03  8832   0.168E-01    0.182E-02
RMM:   2    -0.583503651182E+03   -0.11010E-04   -0.85193E-05  8858   0.273E-02    0.192E-02
RMM:   3    -0.583503658463E+03   -0.72810E-05   -0.28451E-05  8631   0.161E-02    0.270E-02
RMM:   4    -0.583503657737E+03    0.72580E-06   -0.20405E-05  7764   0.133E-02    0.234E-02
RMM:   5    -0.583503650740E+03    0.69968E-05   -0.94476E-06  6690   0.124E-02    0.675E-03
RMM:   6    -0.583503650661E+03    0.78717E-07   -0.42064E-06  6030   0.680E-03
   5 F= -.58350365E+03 E0= -.58350377E+03  d E =-.115428E-03
 curvature:  -4.28 expect dE=-0.644E-04 dE for cont linesearch -0.347E-04
 trial: gam=-0.24335 g(F)=  0.151E-04 g(S)=  0.000E+00 ort = 0.266E-04 (trialstep = 0.128E+01)
 search vector abs. value=  0.729E-05
 reached required accuracy - stopping structural energy minimisation
 augmentation electrons   35.609720883326858     
 soft         electrons   242.48555033548911     
 augmentation electrons   35.609720883326858     
 soft         electrons   242.48555033548911     
 augmentation electrons   35.609720883326858     
 soft         electrons   242.48555033548911     
 augmentation electrons   35.609720883326858     
 soft         electrons   242.48555033548911     
 augmentation electrons   35.609720883326858     
 soft         electrons   242.48555033548911     
 augmentation electrons   35.609720883326858     
 soft         electrons   242.48555033548911     
 augmentation electrons   35.609720883326858     
 soft         electrons   242.48555033548911     
 augmentation electrons   35.609720883326858     
 soft         electrons   242.48555033548911     
 augmentation electrons   35.609720883326858     
 soft         electrons   242.48555033548911     
 augmentation electrons   35.609720883326858     
 soft         electrons   242.48555033548911     
 augmentation electrons   35.609720883326858     
 augmentation electrons   35.609720883326858     
 soft         electrons   242.48555033548911     
 augmentation electrons   35.609720883326858     
 soft         electrons   242.48555033548911     
 augmentation electrons   35.609720883326858     
 soft         electrons   242.48555033548911     
 augmentation electrons   35.609720883326858     
 soft         electrons   242.48555033548911     
 augmentation electrons   35.609720883326858     
 soft         electrons   242.48555033548911     
 augmentation electrons   35.609720883326858     
 soft         electrons   242.48555033548911     
 augmentation electrons   35.609720883326858     
 soft         electrons   242.48555033548911     
 augmentation electrons   35.609720883326858     
 soft         electrons   242.48555033548911     
 augmentation electrons   35.609720883326858     
 soft         electrons   242.48555033548911     
 augmentation electrons   35.609720883326858     
 soft         electrons   242.48555033548911     
 augmentation electrons   35.609720883326858     
 soft         electrons   242.48555033548911     
 augmentation electrons   35.609720883326858     
 soft         electrons   242.48555033548911     
 augmentation electrons   35.609720883326858     
 soft         electrons   242.48555033548911     
 augmentation electrons   35.609720883326858     
 soft         electrons   242.48555033548911     
 augmentation electrons   35.609720883326858     
 soft         electrons   242.48555033548911     
 augmentation electrons   35.609720883326858     
 soft         electrons   242.48555033548911     
 augmentation electrons   35.609720883326858     
 soft         electrons   242.48555033548911     
 augmentation electrons   35.609720883326858     
 soft         electrons   242.48555033548911     
 augmentation electrons   35.609720883326858     
 soft         electrons   242.48555033548911     
 augmentation electrons   35.609720883326858     
 soft         electrons   242.48555033548911     
 augmentation electrons   35.609720883326858     
 soft         electrons   242.48555033548911     
 augmentation electrons   35.609720883326858     
 soft         electrons   242.48555033548911     
 augmentation electrons   35.609720883326858     
 soft         electrons   242.48555033548911     
 augmentation electrons   35.609720883326858     
 soft         electrons   242.48555033548911     
 augmentation electrons   35.609720883326858     
 soft         electrons   242.48555033548911     
 augmentation electrons   35.609720883326858     
 soft         electrons   242.48555033548911     
 augmentation electrons   35.609720883326858     
 soft         electrons   242.48555033548911     
 augmentation electrons   35.609720883326858     
 soft         electrons   242.48555033548911     
 augmentation electrons   35.609720883326858     
 soft         electrons   242.48555033548911     
 augmentation electrons   35.609720883326858     
 soft         electrons   242.48555033548911     
 augmentation electrons   35.609720883326858     
 soft         electrons   242.48555033548911     
 augmentation electrons   35.609720883326858     
 soft         electrons   242.48555033548911     
 augmentation electrons   35.609720883326858     
 soft         electrons   242.48555033548911     
 augmentation electrons   35.609720883326858     
 soft         electrons   242.48555033548911     
 augmentation electrons   35.609720883326858     
 soft         electrons   242.48555033548911     
 augmentation electrons   35.609720883326858     
 soft         electrons   242.48555033548911     
 augmentation electrons   35.609720883326858     
 soft         electrons   242.48555033548911     
 augmentation electrons   35.609720883326858     
 soft         electrons   242.48555033548911     
 augmentation electrons   35.609720883326858     
 soft         electrons   242.48555033548911     
 augmentation electrons   35.609720883326858     
 soft         electrons   242.48555033548911     
 augmentation electrons   35.609720883326858     
 soft         electrons   242.48555033548911     
 augmentation electrons   35.609720883326858     
 soft         electrons   242.48555033548911     
 augmentation electrons   35.609720883326858     
 soft         electrons   242.48555033548911     
 augmentation electrons   35.609720883326858     
 soft         electrons   242.48555033548911     
 augmentation electrons   35.609720883326858     
 soft         electrons   242.48555033548911     
 augmentation electrons   35.609720883326858     
 soft         electrons   242.48555033548911     
 augmentation electrons   35.609720883326858     
 soft         electrons   242.48555033548911     
 augmentation electrons   35.609720883326858     
 soft         electrons   242.48555033548911     
 augmentation electrons   35.609720883326858     
 soft         electrons   242.48555033548911     
 augmentation electrons   35.609720883326858     
 soft         electrons   242.48555033548911     
 augmentation electrons   35.609720883326858     
 soft         electrons   242.48555033548911     
 augmentation electrons   35.609720883326858     
 soft         electrons   242.48555033548911     
 augmentation electrons   35.609720883326858     
 soft         electrons   242.48555033548911     
 augmentation electrons   35.609720883326858     
 soft         electrons   242.48555033548911     
 augmentation electrons   35.609720883326858     
 soft         electrons   242.48555033548911     
 augmentation electrons   35.609720883326858     
 soft         electrons   242.48555033548911     
 augmentation electrons   35.609720883326858     
 soft         electrons   242.48555033548911     
 augmentation electrons   35.609720883326858     
 soft         electrons   242.48555033548911     
 augmentation electrons   35.609720883326858     
 soft         electrons   242.48555033548911     
 augmentation electrons   35.609720883326858     
 soft         electrons   242.48555033548911     
 augmentation electrons   35.609720883326858     
 soft         electrons   242.48555033548911     
 soft         electrons   242.48555033548911     
 total        electrons   278.09527121881598     
 total        electrons   278.09527121881598     
 total        electrons   278.09527121881598     
 total        electrons   278.09527121881598     
 total        electrons   278.09527121881598     
 total        electrons   278.09527121881598     
 total        electrons   278.09527121881598     
 total        electrons   278.09527121881598     
 total        electrons   278.09527121881598     
 total        electrons   278.09527121881598     
 total        electrons   278.09527121881598     
 total        electrons   278.09527121881598     
 total        electrons   278.09527121881598     
 total        electrons   278.09527121881598     
 total        electrons   278.09527121881598     
 total        electrons   278.09527121881598     
 total        electrons   278.09527121881598     
 total        electrons   278.09527121881598     
 total        electrons   278.09527121881598     
 total        electrons   278.09527121881598     
 total        electrons   278.09527121881598     
 total        electrons   278.09527121881598     
 total        electrons   278.09527121881598     
 total        electrons   278.09527121881598     
 total        electrons   278.09527121881598     
 total        electrons   278.09527121881598     
 total        electrons   278.09527121881598     
 total        electrons   278.09527121881598     
 total        electrons   278.09527121881598     
 total        electrons   278.09527121881598     
 total        electrons   278.09527121881598     
 total        electrons   278.09527121881598     
 total        electrons   278.09527121881598     
 total        electrons   278.09527121881598     
 total        electrons   278.09527121881598     
 total        electrons   278.09527121881598     
 total        electrons   278.09527121881598     
 total        electrons   278.09527121881598     
 total        electrons   278.09527121881598     
 total        electrons   278.09527121881598     
 total        electrons   278.09527121881598     
 total        electrons   278.09527121881598     
 total        electrons   278.09527121881598     
 total        electrons   278.09527121881598     
 total        electrons   278.09527121881598     
 total        electrons   278.09527121881598     
 total        electrons   278.09527121881598     
 total        electrons   278.09527121881598     
 total        electrons   278.09527121881598     
 total        electrons   278.09527121881598     
 total        electrons   278.09527121881598     
 total        electrons   278.09527121881598     
 total        electrons   278.09527121881598     
 total        electrons   278.09527121881598     
 total        electrons   278.09527121881598     
 total        electrons   278.09527121881598     
 total        electrons   278.09527121881598     
 total        electrons   278.09527121881598     
 total        electrons   278.09527121881598     
 total        electrons   278.09527121881598     
 total        electrons   278.09527121881598     
 total        electrons   278.09527121881598     
 total        electrons   278.09527121881598     
 total        electrons   278.09527121881598     
 total        electrons   278.09527121881598     
 total        electrons   278.09527121881598     
 total        electrons   278.09527121881598     
 total        electrons   278.09527121881598     
 total        electrons   278.09527121881598     
 total        electrons   278.09527121881598     
 total        electrons   278.09527121881598     
 total        electrons   278.09527121881598     
Note: The following floating-point exceptions are signalling: IEEE_OVERFLOW_FLAG
Note: The following floating-point exceptions are signalling: IEEE_OVERFLOW_FLAG
Note: The following floating-point exceptions are signalling: IEEE_OVERFLOW_FLAG
Note: The following floating-point exceptions are signalling: IEEE_OVERFLOW_FLAG
Note: The following floating-point exceptions are signalling: IEEE_OVERFLOW_FLAG
Note: The following floating-point exceptions are signalling: IEEE_OVERFLOW_FLAG
Note: The following floating-point exceptions are signalling: IEEE_OVERFLOW_FLAG
Note: The following floating-point exceptions are signalling: IEEE_OVERFLOW_FLAG
Note: The following floating-point exceptions are signalling: IEEE_OVERFLOW_FLAG
Note: The following floating-point exceptions are signalling: IEEE_OVERFLOW_FLAG
Note: The following floating-point exceptions are signalling: IEEE_OVERFLOW_FLAG
Note: The following floating-point exceptions are signalling: IEEE_OVERFLOW_FLAG
Note: The following floating-point exceptions are signalling: IEEE_OVERFLOW_FLAG
Note: The following floating-point exceptions are signalling: IEEE_OVERFLOW_FLAG
Note: The following floating-point exceptions are signalling: IEEE_OVERFLOW_FLAG
Note: The following floating-point exceptions are signalling: IEEE_OVERFLOW_FLAG
Note: The following floating-point exceptions are signalling: IEEE_OVERFLOW_FLAG
Note: The following floating-point exceptions are signalling: IEEE_OVERFLOW_FLAG
Note: The following floating-point exceptions are signalling: IEEE_OVERFLOW_FLAG
Note: The following floating-point exceptions are signalling: IEEE_OVERFLOW_FLAG
Note: The following floating-point exceptions are signalling: IEEE_OVERFLOW_FLAG
Note: The following floating-point exceptions are signalling: IEEE_OVERFLOW_FLAG
Note: The following floating-point exceptions are signalling: IEEE_OVERFLOW_FLAG
Note: The following floating-point exceptions are signalling: IEEE_OVERFLOW_FLAG
Note: The following floating-point exceptions are signalling: IEEE_OVERFLOW_FLAG
Note: The following floating-point exceptions are signalling: IEEE_OVERFLOW_FLAG
Note: The following floating-point exceptions are signalling: IEEE_OVERFLOW_FLAG
Note: The following floating-point exceptions are signalling: IEEE_OVERFLOW_FLAG
Note: The following floating-point exceptions are signalling: IEEE_OVERFLOW_FLAG
Note: The following floating-point exceptions are signalling: IEEE_OVERFLOW_FLAG
Note: The following floating-point exceptions are signalling: IEEE_OVERFLOW_FLAG
Note: The following floating-point exceptions are signalling: IEEE_OVERFLOW_FLAG
Note: The following floating-point exceptions are signalling: IEEE_OVERFLOW_FLAG
Note: The following floating-point exceptions are signalling: IEEE_OVERFLOW_FLAG
Note: The following floating-point exceptions are signalling: IEEE_OVERFLOW_FLAG
Note: The following floating-point exceptions are signalling: IEEE_OVERFLOW_FLAG
Note: The following floating-point exceptions are signalling: IEEE_OVERFLOW_FLAG
Note: The following floating-point exceptions are signalling: IEEE_OVERFLOW_FLAG
Note: The following floating-point exceptions are signalling: IEEE_OVERFLOW_FLAG
Note: The following floating-point exceptions are signalling: IEEE_OVERFLOW_FLAG
Note: The following floating-point exceptions are signalling: IEEE_OVERFLOW_FLAG
Note: The following floating-point exceptions are signalling: IEEE_OVERFLOW_FLAG
Note: The following floating-point exceptions are signalling: IEEE_OVERFLOW_FLAG
Note: The following floating-point exceptions are signalling: IEEE_OVERFLOW_FLAG
Note: The following floating-point exceptions are signalling: IEEE_OVERFLOW_FLAG
Note: The following floating-point exceptions are signalling: IEEE_OVERFLOW_FLAG
Note: The following floating-point exceptions are signalling: IEEE_OVERFLOW_FLAG
Note: The following floating-point exceptions are signalling: IEEE_OVERFLOW_FLAG
Note: The following floating-point exceptions are signalling: IEEE_OVERFLOW_FLAG
Note: The following floating-point exceptions are signalling: IEEE_OVERFLOW_FLAG
Note: The following floating-point exceptions are signalling: IEEE_OVERFLOW_FLAG
Note: The following floating-point exceptions are signalling: IEEE_OVERFLOW_FLAG
Note: The following floating-point exceptions are signalling: IEEE_OVERFLOW_FLAG
Note: The following floating-point exceptions are signalling: IEEE_OVERFLOW_FLAG
Note: The following floating-point exceptions are signalling: IEEE_OVERFLOW_FLAG
Note: The following floating-point exceptions are signalling: IEEE_OVERFLOW_FLAG
Note: The following floating-point exceptions are signalling: IEEE_OVERFLOW_FLAG
Note: The following floating-point exceptions are signalling: IEEE_OVERFLOW_FLAG
Note: The following floating-point exceptions are signalling: IEEE_OVERFLOW_FLAG
Note: The following floating-point exceptions are signalling: IEEE_OVERFLOW_FLAG
Note: The following floating-point exceptions are signalling: IEEE_OVERFLOW_FLAG
Note: The following floating-point exceptions are signalling: IEEE_OVERFLOW_FLAG
Note: The following floating-point exceptions are signalling: IEEE_OVERFLOW_FLAG
Note: The following floating-point exceptions are signalling: IEEE_INVALID_FLAG IEEE_OVERFLOW_FLAG
Note: The following floating-point exceptions are signalling: IEEE_OVERFLOW_FLAG
Note: The following floating-point exceptions are signalling: IEEE_OVERFLOW_FLAG
Note: The following floating-point exceptions are signalling: IEEE_OVERFLOW_FLAG
Note: The following floating-point exceptions are signalling: IEEE_OVERFLOW_FLAG
Note: The following floating-point exceptions are signalling: IEEE_OVERFLOW_FLAG
Note: The following floating-point exceptions are signalling: IEEE_OVERFLOW_FLAG
Note: The following floating-point exceptions are signalling: IEEE_OVERFLOW_FLAG
Note: The following floating-point exceptions are signalling: IEEE_OVERFLOW_FLAG
