   23   23   85    1
  0.2549686E+02  0.6078000E-09  0.6078000E-09  0.1833000E-08  0.5000000E-15
   1.0000000000000000E-004
  CAR 
 Name                                    
     87     41     60

  0.3742002E-15  0.3742002E-15  0.1262379E-14  0.1234568E-01
    1      -13.995201   1.000000
    2      -11.951465   1.000000
    3      -11.262571   1.000000
    4      -10.980438   1.000000
    5      -10.812577   1.000000
    6      -10.188918   1.000000
    7      -10.045159   1.000000
    8       -9.977841   1.000000
    9       -9.212187   1.000000
   10       -9.107448   1.000000
   11       -9.035478   1.000000
   12       -8.022449   1.000000
   13       -7.900548   1.000000
   14       -7.764678   1.000000
   15       -7.456889   1.000000
   16       -6.355165   1.000000
   17       -5.966373   1.000000
   18       -5.581618   1.000000
   19       -5.182948   1.000000
   20       -4.950150   1.000000
   21       -4.754648   1.000000
   22       -4.567153   1.000000
   23       -4.508488   1.000000
   24       -4.474260   1.000000
   25       -4.403134   1.000000
   26       -4.143062   1.000000
   27       -4.092614   1.000000
   28       -3.678979   1.000000
   29       -3.530434   1.000000
   30       -3.505447   1.000000
   31       -3.374929   1.000000
   32       -3.285044   1.000000
   33       -3.168545   1.000000
   34       -2.146170   1.000000
   35       -1.979567   1.000000
   36       -1.928697   1.000000
   37       -1.787721   1.000000
   38       -1.745815   1.000000
   39       -1.649802   1.000000
   40       -1.599815   1.000000
   41       -1.559395   1.000000
   42       -0.992141   1.029393
   43       -0.964940   1.013365
   44       -0.431414  -0.016180
   45       -0.363327  -0.005783
   46        0.075095  -0.000000
   47        0.080723  -0.000000
   48        0.280550  -0.000000
   49        0.355578  -0.000000
   50        0.486756  -0.000000
   51        0.524135  -0.000000
   52        0.546455  -0.000000
   53        0.679681  -0.000000
   54        0.722191  -0.000000
   55        0.736157  -0.000000
   56        0.901355  -0.000000
   57        0.913594  -0.000000
   58        1.017884  -0.000000
   59        1.135036  -0.000000
   60        1.153874  -0.000000

  0.1111111E+00  0.3756941E-15  0.1262379E-14  0.2469136E-01
    1      -13.942931   1.000000
    2      -11.912182   1.000000
    3      -11.399437   1.000000
    4      -11.069297   1.000000
    5      -11.000968   1.000000
    6      -10.044294   1.000000
    7      -10.011263   1.000000
    8       -9.855687   1.000000
    9       -9.181721   1.000000
   10       -9.113389   1.000000
   11       -9.099217   1.000000
   12       -7.830151   1.000000
   13       -7.821059   1.000000
   14       -7.593902   1.000000
   15       -7.385190   1.000000
   16       -6.399175   1.000000
   17       -6.070017   1.000000
   18       -5.623309   1.000000
   19       -5.132605   1.000000
   20       -4.947305   1.000000
   21       -4.762209   1.000000
   22       -4.683003   1.000000
   23       -4.537228   1.000000
   24       -4.477786   1.000000
   25       -4.451786   1.000000
   26       -4.141007   1.000000
   27       -4.073057   1.000000
   28       -3.792963   1.000000
   29       -3.718191   1.000000
   30       -3.498356   1.000000
   31       -3.371403   1.000000
   32       -3.133224   1.000000
   33       -3.012294   1.000000
   34       -2.551740   1.000000
   35       -2.327808   1.000000
   36       -1.944162   1.000000
   37       -1.727087   1.000000
   38       -1.705175   1.000000
   39       -1.645624   1.000000
   40       -1.418755   1.000033
   41       -1.310279   1.000610
   42       -1.086560   1.026762
   43       -0.988309   1.027838
   44       -0.549794  -0.034842
   45       -0.436835  -0.017308
   46       -0.077588  -0.000004
   47       -0.031288  -0.000001
   48        0.283390  -0.000000
   49        0.318141  -0.000000
   50        0.361131  -0.000000
   51        0.544726  -0.000000
   52        0.624255  -0.000000
   53        0.735072  -0.000000
   54        0.747185  -0.000000
   55        0.773944  -0.000000
   56        0.868895  -0.000000
   57        0.927695  -0.000000
   58        1.047567  -0.000000
   59        1.133208  -0.000000
   60        1.152857  -0.000000

  0.2222222E+00  0.3431732E-15  0.1262379E-14  0.2469136E-01
    1      -13.788375   1.000000
    2      -11.838425   1.000000
    3      -11.775845   1.000000
    4      -11.235582   1.000000
    5      -11.133329   1.000000
    6      -10.217918   1.000000
    7       -9.832203   1.000000
    8       -9.754015   1.000000
    9       -9.111141   1.000000
   10       -9.081771   1.000000
   11       -8.744338   1.000000
   12       -7.617454   1.000000
   13       -7.582097   1.000000
   14       -7.211107   1.000000
   15       -7.047159   1.000000
   16       -6.556352   1.000000
   17       -6.319280   1.000000
   18       -5.641017   1.000000
   19       -5.125016   1.000000
   20       -5.059195   1.000000
   21       -4.918004   1.000000
   22       -4.788871   1.000000
   23       -4.744068   1.000000
   24       -4.597375   1.000000
   25       -4.458080   1.000000
   26       -4.165416   1.000000
   27       -4.096512   1.000000
   28       -3.954106   1.000000
   29       -3.827345   1.000000
   30       -3.431540   1.000000
   31       -3.266423   1.000000
   32       -3.184229   1.000000
   33       -2.906969   1.000000
   34       -2.735382   1.000000
   35       -2.651974   1.000000
   36       -2.016765   1.000000
   37       -1.880266   1.000000
   38       -1.748171   1.000000
   39       -1.718801   1.000000
   40       -1.410987   1.000041
   41       -1.159003   1.011485
   42       -1.126503   1.017707
   43       -0.993053   1.029733
   44       -0.749206   0.360828
   45       -0.471864  -0.025207
   46       -0.291050  -0.001395
   47       -0.255803  -0.000623
   48        0.065931  -0.000000
   49        0.231353  -0.000000
   50        0.301479  -0.000000
   51        0.543819  -0.000000
   52        0.559200  -0.000000
   53        0.696221  -0.000000
   54        0.751223  -0.000000
   55        0.862228  -0.000000
   56        0.895281  -0.000000
   57        0.910739  -0.000000
   58        1.006029  -0.000000
   59        1.261178  -0.000000
   60        1.439107  -0.000000

  0.3333333E+00  0.3568756E-15  0.1262379E-14  0.2469136E-01
    1      -13.538417   1.000000
    2      -12.315149   1.000000
    3      -11.598358   1.000000
    4      -11.338752   1.000000
    5      -11.232992   1.000000
    6      -10.603901   1.000000
    7       -9.698450   1.000000
    8       -9.684852   1.000000
    9       -9.029642   1.000000
   10       -8.925814   1.000000
   11       -8.076788   1.000000
   12       -7.364953   1.000000
   13       -7.301734   1.000000
   14       -6.884935   1.000000
   15       -6.836784   1.000000
   16       -6.705000   1.000000
   17       -6.343929   1.000000
   18       -5.695740   1.000000
   19       -5.546535   1.000000
   20       -5.266295   1.000000
   21       -5.135335   1.000000
   22       -4.945663   1.000000
   23       -4.829319   1.000000
   24       -4.773497   1.000000
   25       -4.450928   1.000000
   26       -4.350354   1.000000
   27       -4.018981   1.000000
   28       -3.941057   1.000000
   29       -3.762865   1.000000
   30       -3.687071   1.000000
   31       -3.339135   1.000000
   32       -3.102641   1.000000
   33       -2.910456   1.000000
   34       -2.652298   1.000000
   35       -2.488116   1.000000
   36       -2.117566   1.000000
   37       -2.012846   1.000000
   38       -1.853616   1.000000
   39       -1.818410   1.000000
   40       -1.713423   1.000000
   41       -1.436362   1.000019
   42       -1.151608   1.012762
   43       -1.035909   1.035204
   44       -0.705149   0.197910
   45       -0.527275  -0.035071
   46       -0.429031  -0.015696
   47       -0.274265  -0.000959
   48       -0.185964  -0.000103
   49        0.065080  -0.000000
   50        0.088907  -0.000000
   51        0.480695  -0.000000
   52        0.524381  -0.000000
   53        0.623469  -0.000000
   54        0.723907  -0.000000
   55        0.831898  -0.000000
   56        0.982781  -0.000000
   57        1.050899  -0.000000
   58        1.090048  -0.000000
   59        1.391193  -0.000000
   60        1.411862  -0.000000

  0.4444444E+00  0.3276888E-15  0.1262379E-14  0.2469136E-01
    1      -13.208248   1.000000
    2      -12.773931   1.000000
    3      -11.395014   1.000000
    4      -11.349853   1.000000
    5      -11.269002   1.000000
    6      -10.987359   1.000000
    7       -9.663491   1.000000
    8       -9.643957   1.000000
    9       -8.926417   1.000000
   10       -8.768237   1.000000
   11       -7.374773   1.000000
   12       -7.163971   1.000000
   13       -7.060554   1.000000
   14       -6.993543   1.000000
   15       -6.941422   1.000000
   16       -6.513986   1.000000
   17       -6.411798   1.000000
   18       -6.074995   1.000000
   19       -5.443442   1.000000
   20       -5.342906   1.000000
   21       -5.300919   1.000000
   22       -5.155667   1.000000
   23       -4.990511   1.000000
   24       -4.865182   1.000000
   25       -4.571434   1.000000
   26       -4.376320   1.000000
   27       -4.147047   1.000000
   28       -3.923710   1.000000
   29       -3.870688   1.000000
   30       -3.581744   1.000000
   31       -3.205485   1.000000
   32       -3.038203   1.000000
   33       -2.960458   1.000000
   34       -2.490880   1.000000
   35       -2.326119   1.000000
   36       -2.216545   1.000000
   37       -2.180004   1.000000
   38       -1.981291   1.000000
   39       -1.853945   1.000000
   40       -1.756417   1.000000
   41       -1.709334   1.000000
   42       -1.415369   1.000036
   43       -0.949728   0.998604
   44       -0.664813   0.084995
   45       -0.588286  -0.021924
   46       -0.508351  -0.032769
   47       -0.305299  -0.001894
   48       -0.210782  -0.000201
   49       -0.148995  -0.000035
   50       -0.087059  -0.000005
   51        0.469158  -0.000000
   52        0.481918  -0.000000
   53        0.558938  -0.000000
   54        0.723618  -0.000000
   55        0.835721  -0.000000
   56        1.048811  -0.000000
   57        1.137493  -0.000000
   58        1.161832  -0.000000
   59        1.257073  -0.000000
   60        1.468338  -0.000000

  0.3742002E-15  0.1111111E+00  0.1262379E-14  0.2469136E-01
    1      -13.942930   1.000000
    2      -11.912180   1.000000
    3      -11.399457   1.000000
    4      -11.069028   1.000000
    5      -11.001275   1.000000
    6      -10.044052   1.000000
    7      -10.011425   1.000000
    8       -9.855641   1.000000
    9       -9.181784   1.000000
   10       -9.113360   1.000000
   11       -9.099248   1.000000
   12       -7.830130   1.000000
   13       -7.821058   1.000000
   14       -7.593904   1.000000
   15       -7.385201   1.000000
   16       -6.399202   1.000000
   17       -6.070041   1.000000
   18       -5.623289   1.000000
   19       -5.132604   1.000000
   20       -4.947333   1.000000
   21       -4.762259   1.000000
   22       -4.682940   1.000000
   23       -4.537307   1.000000
   24       -4.477692   1.000000
   25       -4.451837   1.000000
   26       -4.140883   1.000000
   27       -4.073154   1.000000
   28       -3.792916   1.000000
   29       -3.718149   1.000000
   30       -3.498385   1.000000
   31       -3.371378   1.000000
   32       -3.133207   1.000000
   33       -3.012330   1.000000
   34       -2.551681   1.000000
   35       -2.327934   1.000000
   36       -1.944134   1.000000
   37       -1.727073   1.000000
   38       -1.705184   1.000000
   39       -1.645612   1.000000
   40       -1.418688   1.000033
   41       -1.310322   1.000610
   42       -1.086561   1.026762
   43       -0.988309   1.027838
   44       -0.549796  -0.034842
   45       -0.436833  -0.017307
   46       -0.077574  -0.000004
   47       -0.031310  -0.000001
   48        0.283384  -0.000000
   49        0.318137  -0.000000
   50        0.361120  -0.000000
   51        0.544714  -0.000000
   52        0.624275  -0.000000
   53        0.735069  -0.000000
   54        0.747196  -0.000000
   55        0.773940  -0.000000
   56        0.868888  -0.000000
   57        0.927692  -0.000000
   58        1.047545  -0.000000
   59        1.133216  -0.000000
   60        1.152853  -0.000000

  0.1111111E+00  0.1111111E+00  0.1262379E-14  0.2469136E-01
    1      -13.839366   1.000000
    2      -11.832282   1.000000
    3      -11.599500   1.000000
    4      -11.449588   1.000000
    5      -10.907591   1.000000
    6      -10.086380   1.000000
    7       -9.959064   1.000000
    8       -9.858666   1.000000
    9       -9.023805   1.000000
   10       -8.993115   1.000000
   11       -8.983415   1.000000
   12       -7.922657   1.000000
   13       -7.365345   1.000000
   14       -7.317550   1.000000
   15       -7.217871   1.000000
   16       -6.561062   1.000000
   17       -6.229653   1.000000
   18       -5.631740   1.000000
   19       -5.087828   1.000000
   20       -4.983311   1.000000
   21       -4.943700   1.000000
   22       -4.707556   1.000000
   23       -4.652854   1.000000
   24       -4.483467   1.000000
   25       -4.401651   1.000000
   26       -4.249432   1.000000
   27       -4.103060   1.000000
   28       -4.048330   1.000000
   29       -3.681882   1.000000
   30       -3.467660   1.000000
   31       -3.248810   1.000000
   32       -3.081764   1.000000
   33       -2.931052   1.000000
   34       -2.815026   1.000000
   35       -2.683325   1.000000
   36       -1.837168   1.000000
   37       -1.823085   1.000000
   38       -1.794656   1.000000
   39       -1.705682   1.000000
   40       -1.438464   1.000018
   41       -1.276715   1.001320
   42       -1.120026   1.019113
   43       -0.885531   0.878022
   44       -0.736866   0.311951
   45       -0.467752  -0.024257
   46       -0.256624  -0.000636
   47       -0.200856  -0.000154
   48        0.137387  -0.000000
   49        0.273015  -0.000000
   50        0.317048  -0.000000
   51        0.590478  -0.000000
   52        0.623741  -0.000000
   53        0.751577  -0.000000
   54        0.759903  -0.000000
   55        0.771393  -0.000000
   56        0.796268  -0.000000
   57        0.888970  -0.000000
   58        0.906657  -0.000000
   59        1.316989  -0.000000
   60        1.375112  -0.000000

  0.2222222E+00  0.1111111E+00  0.1262379E-14  0.2469136E-01
    1      -13.637052   1.000000
    2      -12.035571   1.000000
    3      -11.702576   1.000000
    4      -11.650529   1.000000
    5      -10.860642   1.000000
    6      -10.364870   1.000000
    7      -10.041610   1.000000
    8       -9.749298   1.000000
    9       -8.952748   1.000000
   10       -8.744134   1.000000
   11       -8.383864   1.000000
   12       -7.881197   1.000000
   13       -7.033275   1.000000
   14       -6.970776   1.000000
   15       -6.860866   1.000000
   16       -6.693851   1.000000
   17       -6.360499   1.000000
   18       -5.685135   1.000000
   19       -5.437083   1.000000
   20       -5.197782   1.000000
   21       -5.106865   1.000000
   22       -4.917122   1.000000
   23       -4.663219   1.000000
   24       -4.558443   1.000000
   25       -4.452231   1.000000
   26       -4.280641   1.000000
   27       -4.206745   1.000000
   28       -4.119288   1.000000
   29       -3.615496   1.000000
   30       -3.493708   1.000000
   31       -3.304215   1.000000
   32       -3.160346   1.000000
   33       -2.901995   1.000000
   34       -2.813643   1.000000
   35       -2.623830   1.000000
   36       -1.968859   1.000000
   37       -1.939516   1.000000
   38       -1.892314   1.000000
   39       -1.692435   1.000000
   40       -1.679078   1.000000
   41       -1.461615   1.000009
   42       -1.164762   1.010551
   43       -0.847546   0.759378
   44       -0.770489   0.448826
   45       -0.515691  -0.033864
   46       -0.434768  -0.016873
   47       -0.340987  -0.003857
   48       -0.042375  -0.000001
   49        0.141805  -0.000000
   50        0.236459  -0.000000
   51        0.440724  -0.000000
   52        0.591013  -0.000000
   53        0.607414  -0.000000
   54        0.670577  -0.000000
   55        0.796611  -0.000000
   56        0.854118  -0.000000
   57        0.976227  -0.000000
   58        1.003840  -0.000000
   59        1.418502  -0.000000
   60        1.539434  -0.000000

  0.3333333E+00  0.1111111E+00  0.1262379E-14  0.2469136E-01
    1      -13.345690   1.000000
    2      -12.517465   1.000000
    3      -11.790323   1.000000
    4      -11.436837   1.000000
    5      -10.872967   1.000000
    6      -10.761661   1.000000
    7      -10.095731   1.000000
    8       -9.480527   1.000000
    9       -9.020116   1.000000
   10       -8.475279   1.000000
   11       -7.720173   1.000000
   12       -7.630280   1.000000
   13       -7.175702   1.000000
   14       -6.729085   1.000000
   15       -6.634698   1.000000
   16       -6.587129   1.000000
   17       -6.150280   1.000000
   18       -6.077890   1.000000
   19       -5.572653   1.000000
   20       -5.429245   1.000000
   21       -5.367682   1.000000
   22       -5.106667   1.000000
   23       -4.888791   1.000000
   24       -4.708057   1.000000
   25       -4.546569   1.000000
   26       -4.351169   1.000000
   27       -4.154699   1.000000
   28       -4.037261   1.000000
   29       -3.899955   1.000000
   30       -3.463596   1.000000
   31       -3.184660   1.000000
   32       -3.074686   1.000000
   33       -2.944228   1.000000
   34       -2.611892   1.000000
   35       -2.443462   1.000000
   36       -2.147535   1.000000
   37       -2.078825   1.000000
   38       -1.949287   1.000000
   39       -1.830381   1.000000
   40       -1.734338   1.000000
   41       -1.681926   1.000000
   42       -1.202903   1.005682
   43       -1.013491   1.034621
   44       -0.716211   0.235481
   45       -0.631492   0.022207
   46       -0.487384  -0.028702
   47       -0.374939  -0.007049
   48       -0.145373  -0.000032
   49       -0.057210  -0.000002
   50        0.058601  -0.000000
   51        0.345334  -0.000000
   52        0.520715  -0.000000
   53        0.558393  -0.000000
   54        0.608431  -0.000000
   55        0.858959  -0.000000
   56        0.950783  -0.000000
   57        1.066568  -0.000000
   58        1.085063  -0.000000
   59        1.264242  -0.000000
   60        1.531577  -0.000000

  0.4444444E+00  0.1111111E+00  0.1262379E-14  0.2469136E-01
    1      -13.035383   1.000000
    2      -12.894997   1.000000
    3      -11.825978   1.000000
    4      -11.147891   1.000000
    5      -11.120305   1.000000
    6      -10.876325   1.000000
    7      -10.109703   1.000000
    8       -9.272746   1.000000
    9       -9.154939   1.000000
   10       -8.339658   1.000000
   11       -7.482015   1.000000
   12       -7.439379   1.000000
   13       -6.892522   1.000000
   14       -6.870061   1.000000
   15       -6.778306   1.000000
   16       -6.490997   1.000000
   17       -6.328794   1.000000
   18       -6.084657   1.000000
   19       -5.550911   1.000000
   20       -5.404632   1.000000
   21       -5.292102   1.000000
   22       -5.174835   1.000000
   23       -5.081400   1.000000
   24       -5.048300   1.000000
   25       -4.591567   1.000000
   26       -4.385975   1.000000
   27       -4.192626   1.000000
   28       -3.984194   1.000000
   29       -3.917661   1.000000
   30       -3.461855   1.000000
   31       -3.169119   1.000000
   32       -3.068316   1.000000
   33       -2.860633   1.000000
   34       -2.606191   1.000000
   35       -2.239733   1.000000
   36       -2.202699   1.000000
   37       -2.130670   1.000000
   38       -1.951781   1.000000
   39       -1.816600   1.000000
   40       -1.789968   1.000000
   41       -1.685942   1.000000
   42       -1.438672   1.000018
   43       -0.983086   1.025374
   44       -0.739216   0.321099
   45       -0.643147   0.041071
   46       -0.444730  -0.019012
   47       -0.405702  -0.011401
   48       -0.231100  -0.000340
   49       -0.153765  -0.000041
   50       -0.024548  -0.000001
   51        0.333141  -0.000000
   52        0.510556  -0.000000
   53        0.515934  -0.000000
   54        0.608600  -0.000000
   55        0.877440  -0.000000
   56        1.005898  -0.000000
   57        1.076521  -0.000000
   58        1.148273  -0.000000
   59        1.223179  -0.000000
   60        1.470009  -0.000000

 -0.4444444E+00  0.1111111E+00  0.1262379E-14  0.2469136E-01
    1      -13.345367   1.000000
    2      -12.523455   1.000000
    3      -11.795236   1.000000
    4      -11.426286   1.000000
    5      -10.888112   1.000000
    6      -10.756352   1.000000
    7      -10.087322   1.000000
    8       -9.482425   1.000000
    9       -9.025033   1.000000
   10       -8.460463   1.000000
   11       -7.850137   1.000000
   12       -7.496699   1.000000
   13       -7.154009   1.000000
   14       -6.788896   1.000000
   15       -6.651177   1.000000
   16       -6.584232   1.000000
   17       -6.144366   1.000000
   18       -6.026848   1.000000
   19       -5.571218   1.000000
   20       -5.414123   1.000000
   21       -5.301977   1.000000
   22       -5.174374   1.000000
   23       -4.985073   1.000000
   24       -4.855753   1.000000
   25       -4.474278   1.000000
   26       -4.344724   1.000000
   27       -4.114624   1.000000
   28       -4.005971   1.000000
   29       -3.926750   1.000000
   30       -3.565300   1.000000
   31       -3.286392   1.000000
   32       -3.051361   1.000000
   33       -2.914995   1.000000
   34       -2.667127   1.000000
   35       -2.218860   1.000000
   36       -2.075837   1.000000
   37       -2.025406   1.000000
   38       -1.949825   1.000000
   39       -1.843002   1.000000
   40       -1.695215   1.000000
   41       -1.498777   1.000003
   42       -1.362055   1.000164
   43       -1.008809   1.033925
   44       -0.754606   0.382794
   45       -0.576286  -0.028104
   46       -0.488336  -0.028908
   47       -0.383782  -0.008147
   48       -0.160573  -0.000050
   49       -0.046161  -0.000001
   50        0.068357  -0.000000
   51        0.343521  -0.000000
   52        0.522135  -0.000000
   53        0.550870  -0.000000
   54        0.651182  -0.000000
   55        0.826817  -0.000000
   56        1.002780  -0.000000
   57        1.053288  -0.000000
   58        1.129651  -0.000000
   59        1.330697  -0.000000
   60        1.534434  -0.000000

 -0.3333333E+00  0.1111111E+00  0.1262379E-14  0.2469136E-01
    1      -13.637442   1.000000
    2      -12.053497   1.000000
    3      -11.733862   1.000000
    4      -11.605944   1.000000
    5      -10.867992   1.000000
    6      -10.363319   1.000000
    7      -10.035426   1.000000
    8       -9.739333   1.000000
    9       -8.967402   1.000000
   10       -8.745686   1.000000
   11       -8.433127   1.000000
   12       -7.810909   1.000000
   13       -7.049750   1.000000
   14       -7.000033   1.000000
   15       -6.930553   1.000000
   16       -6.563649   1.000000
   17       -6.349747   1.000000
   18       -5.760233   1.000000
   19       -5.395905   1.000000
   20       -5.139096   1.000000
   21       -5.028965   1.000000
   22       -4.979750   1.000000
   23       -4.910861   1.000000
   24       -4.702367   1.000000
   25       -4.443565   1.000000
   26       -4.349758   1.000000
   27       -4.099143   1.000000
   28       -3.955264   1.000000
   29       -3.711702   1.000000
   30       -3.484166   1.000000
   31       -3.478748   1.000000
   32       -3.082416   1.000000
   33       -2.982003   1.000000
   34       -2.742913   1.000000
   35       -2.456938   1.000000
   36       -1.953905   1.000000
   37       -1.916098   1.000000
   38       -1.840553   1.000000
   39       -1.679857   1.000000
   40       -1.583992   1.000000
   41       -1.264646   1.001713
   42       -1.182736   1.007978
   43       -0.950903   0.999911
   44       -0.731061   0.289714
   45       -0.509205  -0.032907
   46       -0.455904  -0.021524
   47       -0.344450  -0.004115
   48       -0.075854  -0.000003
   49        0.172354  -0.000000
   50        0.264201  -0.000000
   51        0.443023  -0.000000
   52        0.560014  -0.000000
   53        0.597231  -0.000000
   54        0.682759  -0.000000
   55        0.798860  -0.000000
   56        0.951909  -0.000000
   57        0.997284  -0.000000
   58        1.086453  -0.000000
   59        1.441080  -0.000000
   60        1.532067  -0.000000

 -0.2222222E+00  0.1111111E+00  0.1262379E-14  0.2469136E-01
    1      -13.839865   1.000000
    2      -11.848800   1.000000
    3      -11.606862   1.000000
    4      -11.446757   1.000000
    5      -10.884401   1.000000
    6      -10.034993   1.000000
    7       -9.990050   1.000000
    8       -9.886240   1.000000
    9       -9.101938   1.000000
   10       -8.988057   1.000000
   11       -8.921520   1.000000
   12       -7.901353   1.000000
   13       -7.385496   1.000000
   14       -7.340102   1.000000
   15       -7.250072   1.000000
   16       -6.472308   1.000000
   17       -6.072895   1.000000
   18       -5.834933   1.000000
   19       -5.137077   1.000000
   20       -4.990691   1.000000
   21       -4.894601   1.000000
   22       -4.818419   1.000000
   23       -4.675871   1.000000
   24       -4.528875   1.000000
   25       -4.504710   1.000000
   26       -4.144234   1.000000
   27       -4.057203   1.000000
   28       -3.946860   1.000000
   29       -3.733728   1.000000
   30       -3.656740   1.000000
   31       -3.203387   1.000000
   32       -3.066018   1.000000
   33       -2.844313   1.000000
   34       -2.780522   1.000000
   35       -2.678486   1.000000
   36       -1.835641   1.000000
   37       -1.790198   1.000000
   38       -1.753347   1.000000
   39       -1.648492   1.000000
   40       -1.382809   1.000093
   41       -1.217335   1.004385
   42       -1.070303   1.030285
   43       -0.987653   1.027551
   44       -0.638023   0.032378
   45       -0.512251  -0.033378
   46       -0.243656  -0.000464
   47       -0.220628  -0.000260
   48        0.127799  -0.000000
   49        0.250563  -0.000000
   50        0.379943  -0.000000
   51        0.592468  -0.000000
   52        0.609837  -0.000000
   53        0.672408  -0.000000
   54        0.703337  -0.000000
   55        0.795198  -0.000000
   56        0.874750  -0.000000
   57        0.962842  -0.000000
   58        1.097384  -0.000000
   59        1.250998  -0.000000
   60        1.338861  -0.000000

 -0.1111111E+00  0.1111111E+00  0.1262379E-14  0.2469136E-01
    1      -13.943143   1.000000
    2      -11.915821   1.000000
    3      -11.384797   1.000000
    4      -11.181629   1.000000
    5      -10.879856   1.000000
    6      -10.081390   1.000000
    7       -9.963767   1.000000
    8       -9.897617   1.000000
    9       -9.238553   1.000000
   10       -9.114421   1.000000
   11       -9.022594   1.000000
   12       -7.917920   1.000000
   13       -7.730566   1.000000
   14       -7.617823   1.000000
   15       -7.391787   1.000000
   16       -6.377553   1.000000
   17       -5.946555   1.000000
   18       -5.751183   1.000000
   19       -5.173093   1.000000
   20       -4.916101   1.000000
   21       -4.864848   1.000000
   22       -4.650573   1.000000
   23       -4.564622   1.000000
   24       -4.467029   1.000000
   25       -4.462539   1.000000
   26       -4.104403   1.000000
   27       -4.004992   1.000000
   28       -3.818080   1.000000
   29       -3.748063   1.000000
   30       -3.586375   1.000000
   31       -3.273363   1.000000
   32       -3.140767   1.000000
   33       -3.011556   1.000000
   34       -2.513171   1.000000
   35       -2.415161   1.000000
   36       -1.787135   1.000000
   37       -1.702514   1.000000
   38       -1.671786   1.000000
   39       -1.636422   1.000000
   40       -1.488248   1.000004
   41       -1.377489   1.000108
   42       -1.054659   1.033121
   43       -0.987251   1.027372
   44       -0.502720  -0.031793
   45       -0.456105  -0.021570
   46       -0.052992  -0.000002
   47       -0.047973  -0.000001
   48        0.268850  -0.000000
   49        0.304933  -0.000000
   50        0.398373  -0.000000
   51        0.514777  -0.000000
   52        0.669061  -0.000000
   53        0.704883  -0.000000
   54        0.746429  -0.000000
   55        0.761741  -0.000000
   56        0.904318  -0.000000
   57        0.919989  -0.000000
   58        1.105388  -0.000000
   59        1.118591  -0.000000
   60        1.190328  -0.000000

  0.3742002E-15  0.2222222E+00  0.1262379E-14  0.2469136E-01
    1      -13.788374   1.000000
    2      -11.838419   1.000000
    3      -11.775880   1.000000
    4      -11.235410   1.000000
    5      -11.133546   1.000000
    6      -10.217898   1.000000
    7       -9.832143   1.000000
    8       -9.753943   1.000000
    9       -9.111067   1.000000
   10       -9.081723   1.000000
   11       -8.744499   1.000000
   12       -7.617452   1.000000
   13       -7.582092   1.000000
   14       -7.211067   1.000000
   15       -7.047211   1.000000
   16       -6.556419   1.000000
   17       -6.319397   1.000000
   18       -5.640923   1.000000
   19       -5.125223   1.000000
   20       -5.059144   1.000000
   21       -4.918033   1.000000
   22       -4.788834   1.000000
   23       -4.744027   1.000000
   24       -4.597456   1.000000
   25       -4.458026   1.000000
   26       -4.165298   1.000000
   27       -4.096443   1.000000
   28       -3.954021   1.000000
   29       -3.827382   1.000000
   30       -3.431522   1.000000
   31       -3.266365   1.000000
   32       -3.184206   1.000000
   33       -2.906963   1.000000
   34       -2.735484   1.000000
   35       -2.651995   1.000000