   50   50    1    1
  0.2005953E+02  0.8733603E-09  0.6079487E-09  0.2183401E-08  0.5000000E-15
   1.0000000000000000E-004
  CAR 
 Name                                    
    186     50    120

  0.3742002E-15  0.3742002E-15  0.1262379E-14  0.1010101E-01
    1      -13.100286   1.000000
    2      -11.796850   1.000000
    3      -11.647358   1.000000
    4      -11.239952   1.000000
    5      -10.657053   1.000000
    6      -10.350453   1.000000
    7      -10.188324   1.000000
    8      -10.093910   1.000000
    9       -9.993372   1.000000
   10       -9.794532   1.000000
   11       -9.787510   1.000000
   12       -9.505986   1.000000
   13       -9.332793   1.000000
   14       -9.277093   1.000000
   15       -8.943117   1.000000
   16       -8.857626   1.000000
   17       -8.285863   1.000000
   18       -8.204580   1.000000
   19       -7.810555   1.000000
   20       -7.616298   1.000000
   21       -7.512520   1.000000
   22       -7.365320   1.000000
   23       -7.287734   1.000000
   24       -7.170448   1.000000
   25       -7.129508   1.000000
   26       -7.107336   1.000000
   27       -6.625183   1.000000
   28       -6.353450   1.000000
   29       -5.696418   1.000000
   30       -5.656377   1.000000
   31       -5.449091   1.000000
   32       -5.314531   1.000000
   33       -5.178509   1.000000
   34       -4.895183   1.000000
   35       -4.791502   1.000000
   36       -4.716005   1.000000
   37       -4.616673   1.000000
   38       -4.368669   1.000000
   39       -4.360692   1.000000
   40       -4.278084   1.000000
   41       -4.141955   1.000000
   42       -4.064909   1.000000
   43       -3.925206   1.000000
   44       -3.875307   1.000000
   45       -3.827201   1.000000
   46       -3.787194   1.000000
   47       -3.719845   1.000000
   48       -3.609888   1.000000
   49       -3.604214   1.000000
   50       -3.522174   1.000000
   51       -3.488334   1.000000
   52       -3.443361   1.000000
   53       -3.205785   1.000000
   54       -3.119764   1.000000
   55       -3.102521   1.000000
   56       -3.067372   1.000000
   57       -2.993194   1.000000
   58       -2.888327   1.000000
   59       -2.864311   1.000000
   60       -2.800230   1.000000
   61       -2.646141   1.000000
   62       -2.594922   1.000000
   63       -2.569950   1.000000
   64       -2.457983   1.000000
   65       -2.400997   1.000000
   66       -2.337162   1.000000
   67       -2.303301   1.000000
   68       -2.153111   1.000000
   69       -2.136416   1.000000
   70       -2.098683   1.000000
   71       -2.040821   1.000000
   72       -1.980890   1.000000
   73       -1.551657   1.000000
   74       -1.410343   1.000000
   75       -1.315132   1.000000
   76       -1.243712   1.000000
   77       -1.181458   1.000000
   78       -1.125509   1.000000
   79       -1.047759   1.000000
   80       -1.000898   1.000000
   81       -0.616619   1.000000
   82       -0.536072   1.000000
   83       -0.375457   1.000000
   84       -0.233447   1.000000
   85       -0.165885   1.000000
   86        0.029873   1.000000
   87        0.107283   1.000000
   88        0.161593   1.000000
   89        0.186412   1.000000
   90        0.619024   1.000952
   91        0.664590   1.005963
   92        0.922073   0.136984
   93        0.969219  -0.020295
   94        0.999047  -0.035304
   95        1.069820  -0.008945
   96        1.117272  -0.001513
   97        1.196454  -0.000024
   98        1.340506  -0.000000
   99        1.419420  -0.000000
  100        1.423729  -0.000000
  101        1.433826  -0.000000
  102        1.552409  -0.000000
  103        1.610706  -0.000000
  104        1.617803  -0.000000
  105        1.637383  -0.000000
  106        1.792137  -0.000000
  107        1.981016  -0.000000
  108        2.047937  -0.000000
  109        2.051672  -0.000000
  110        2.093819  -0.000000
  111        2.150678  -0.000000
  112        2.208688  -0.000000
  113        2.245013  -0.000000
  114        2.251237  -0.000000
  115        2.304718  -0.000000
  116        2.455969  -0.000000
  117        2.577390  -0.000000
  118        2.678233  -0.000000
  119        3.992702   0.000000
  120        4.611890   0.000000

  0.1111111E+00  0.3694577E-15  0.1266495E-14  0.2020202E-01
    1      -13.075195   1.000000
    2      -11.795686   1.000000
    3      -11.755977   1.000000
    4      -11.160723   1.000000
    5      -10.651568   1.000000
    6      -10.376294   1.000000
    7      -10.176103   1.000000
    8      -10.096064   1.000000
    9       -9.996934   1.000000
   10       -9.788166   1.000000
   11       -9.780376   1.000000
   12       -9.506479   1.000000
   13       -9.326475   1.000000
   14       -9.276894   1.000000
   15       -8.931596   1.000000
   16       -8.838372   1.000000
   17       -8.294881   1.000000
   18       -8.182449   1.000000
   19       -7.810954   1.000000
   20       -7.610642   1.000000
   21       -7.530603   1.000000
   22       -7.424318   1.000000
   23       -7.343358   1.000000
   24       -7.171449   1.000000
   25       -7.125890   1.000000
   26       -7.045968   1.000000
   27       -6.688771   1.000000
   28       -6.382386   1.000000
   29       -5.688701   1.000000
   30       -5.612466   1.000000
   31       -5.408586   1.000000
   32       -5.267867   1.000000
   33       -5.151645   1.000000
   34       -4.970860   1.000000
   35       -4.792681   1.000000
   36       -4.717113   1.000000
   37       -4.622115   1.000000
   38       -4.456206   1.000000
   39       -4.319903   1.000000
   40       -4.286081   1.000000
   41       -4.127324   1.000000
   42       -3.996691   1.000000
   43       -3.902135   1.000000
   44       -3.836624   1.000000
   45       -3.806860   1.000000
   46       -3.770235   1.000000
   47       -3.685712   1.000000
   48       -3.644974   1.000000
   49       -3.596831   1.000000
   50       -3.507133   1.000000
   51       -3.471341   1.000000
   52       -3.425345   1.000000
   53       -3.203304   1.000000
   54       -3.129134   1.000000
   55       -3.097554   1.000000
   56       -3.056571   1.000000
   57       -2.978358   1.000000
   58       -2.919107   1.000000
   59       -2.885015   1.000000
   60       -2.823106   1.000000
   61       -2.653239   1.000000
   62       -2.592754   1.000000
   63       -2.574068   1.000000
   64       -2.467197   1.000000
   65       -2.434507   1.000000
   66       -2.341112   1.000000
   67       -2.310130   1.000000
   68       -2.131630   1.000000
   69       -2.104638   1.000000
   70       -2.094565   1.000000
   71       -2.049990   1.000000
   72       -1.959999   1.000000
   73       -1.629312   1.000000
   74       -1.411208   1.000000
   75       -1.345293   1.000000
   76       -1.279796   1.000000
   77       -1.192223   1.000000
   78       -1.140492   1.000000
   79       -1.058633   1.000000
   80       -0.986373   1.000000
   81       -0.592072   1.000000
   82       -0.511028   1.000000
   83       -0.396423   1.000000
   84       -0.231332   1.000000
   85       -0.189256   1.000000
   86        0.023326   1.000000
   87        0.117514   1.000000
   88        0.186889   1.000000
   89        0.264201   1.000000
   90        0.576724   1.000113
   91        0.619157   1.000958
   92        0.922905   0.132339
   93        0.935762   0.069443
   94        1.077953  -0.006870
   95        1.099810  -0.003105
   96        1.142258  -0.000477
   97        1.146132  -0.000394
   98        1.358858  -0.000000
   99        1.387127  -0.000000
  100        1.443610  -0.000000
  101        1.456976  -0.000000
  102        1.559143  -0.000000
  103        1.619841  -0.000000
  104        1.636208  -0.000000
  105        1.655385  -0.000000
  106        1.805992  -0.000000
  107        2.016481  -0.000000
  108        2.051463  -0.000000
  109        2.073110  -0.000000
  110        2.096946  -0.000000
  111        2.155332  -0.000000
  112        2.202826  -0.000000
  113        2.243940  -0.000000
  114        2.261484  -0.000000
  115        2.318557  -0.000000
  116        2.398938  -0.000000
  117        2.423327  -0.000000
  118        2.618506  -0.000000
  119        2.675812  -0.000000
  120        2.862844  -0.000000

  0.2222222E+00  0.3681327E-15  0.1265439E-14  0.2020202E-01
    1      -13.000574   1.000000
    2      -12.020614   1.000000
    3      -11.706095   1.000000
    4      -11.095805   1.000000
    5      -10.632728   1.000000
    6      -10.407428   1.000000
    7      -10.146145   1.000000
    8      -10.101736   1.000000
    9       -9.996695   1.000000
   10       -9.773845   1.000000
   11       -9.761671   1.000000
   12       -9.531195   1.000000
   13       -9.314787   1.000000
   14       -9.278713   1.000000
   15       -8.898640   1.000000
   16       -8.780832   1.000000
   17       -8.308981   1.000000
   18       -8.104628   1.000000
   19       -7.817192   1.000000
   20       -7.616567   1.000000
   21       -7.611475   1.000000
   22       -7.539457   1.000000
   23       -7.414837   1.000000
   24       -7.191685   1.000000
   25       -7.151376   1.000000
   26       -6.926079   1.000000
   27       -6.797619   1.000000
   28       -6.428227   1.000000
   29       -5.672662   1.000000
   30       -5.533415   1.000000
   31       -5.363147   1.000000
   32       -5.212689   1.000000
   33       -5.145960   1.000000
   34       -5.066297   1.000000
   35       -4.783326   1.000000
   36       -4.691220   1.000000
   37       -4.622275   1.000000
   38       -4.526868   1.000000
   39       -4.231468   1.000000
   40       -4.184980   1.000000
   41       -4.107990   1.000000
   42       -4.004491   1.000000
   43       -3.906126   1.000000
   44       -3.819152   1.000000
   45       -3.778641   1.000000
   46       -3.723798   1.000000
   47       -3.663871   1.000000
   48       -3.600758   1.000000
   49       -3.544391   1.000000
   50       -3.455431   1.000000
   51       -3.420418   1.000000
   52       -3.396671   1.000000
   53       -3.215423   1.000000
   54       -3.134100   1.000000
   55       -3.092196   1.000000
   56       -3.048264   1.000000
   57       -2.985498   1.000000
   58       -2.952878   1.000000
   59       -2.924386   1.000000
   60       -2.833395   1.000000
   61       -2.640349   1.000000
   62       -2.606755   1.000000
   63       -2.583521   1.000000
   64       -2.494931   1.000000
   65       -2.464570   1.000000
   66       -2.355466   1.000000
   67       -2.349988   1.000000
   68       -2.212591   1.000000
   69       -2.155834   1.000000
   70       -1.996169   1.000000
   71       -1.940133   1.000000
   72       -1.892781   1.000000
   73       -1.793536   1.000000
   74       -1.472663   1.000000
   75       -1.386623   1.000000
   76       -1.356224   1.000000
   77       -1.274055   1.000000
   78       -1.176459   1.000000
   79       -1.095994   1.000000
   80       -0.885605   1.000000
   81       -0.687083   1.000000
   82       -0.473990   1.000000
   83       -0.320707   1.000000
   84       -0.289052   1.000000
   85       -0.178540   1.000000
   86        0.050623   1.000000
   87        0.158084   1.000000
   88        0.231455   1.000000
   89        0.438740   1.000000
   90        0.495581   1.000001
   91        0.519434   1.000003
   92        0.831775   0.820368
   93        1.022121  -0.028195
   94        1.062070  -0.011311
   95        1.090454  -0.004426
   96        1.166180  -0.000139
   97        1.272320  -0.000000
   98        1.356877  -0.000000
   99        1.396832  -0.000000
  100        1.412268  -0.000000
  101        1.466713  -0.000000
  102        1.611956  -0.000000
  103        1.636705  -0.000000
  104        1.664624  -0.000000
  105        1.704702  -0.000000
  106        1.922696  -0.000000
  107        2.001389  -0.000000
  108        2.079325  -0.000000
  109        2.093565  -0.000000
  110        2.151304  -0.000000
  111        2.172997  -0.000000
  112        2.217197  -0.000000
  113        2.255111  -0.000000
  114        2.308654  -0.000000
  115        2.362966  -0.000000
  116        2.403284  -0.000000
  117        2.476187  -0.000000
  118        2.543872  -0.000000
  119        2.670960  -0.000000
  120        2.801494  -0.000000

  0.3333333E+00  0.3672355E-15  0.1308213E-14  0.2020202E-01
    1      -12.878465   1.000000
    2      -12.271606   1.000000
    3      -11.603635   1.000000
    4      -11.157077   1.000000
    5      -10.594163   1.000000
    6      -10.397928   1.000000
    7      -10.122013   1.000000
    8      -10.108537   1.000000
    9       -9.965225   1.000000
   10       -9.759654   1.000000
   11       -9.742549   1.000000
   12       -9.598269   1.000000
   13       -9.306157   1.000000
   14       -9.283266   1.000000
   15       -8.853708   1.000000
   16       -8.693569   1.000000
   17       -8.310681   1.000000
   18       -7.971986   1.000000
   19       -7.876492   1.000000
   20       -7.742408   1.000000
   21       -7.689714   1.000000
   22       -7.543250   1.000000
   23       -7.446987   1.000000
   24       -7.229100   1.000000
   25       -7.207832   1.000000
   26       -7.079871   1.000000
   27       -6.617212   1.000000
   28       -6.411105   1.000000
   29       -5.673691   1.000000
   30       -5.636245   1.000000
   31       -5.413812   1.000000
   32       -5.335247   1.000000
   33       -5.106908   1.000000
   34       -4.892458   1.000000
   35       -4.710379   1.000000
   36       -4.621718   1.000000
   37       -4.573258   1.000000
   38       -4.477387   1.000000
   39       -4.220368   1.000000
   40       -4.174259   1.000000
   41       -4.019119   1.000000
   42       -3.968370   1.000000
   43       -3.951970   1.000000
   44       -3.922059   1.000000
   45       -3.786479   1.000000
   46       -3.698774   1.000000
   47       -3.598715   1.000000
   48       -3.527858   1.000000
   49       -3.459368   1.000000
   50       -3.420429   1.000000
   51       -3.376401   1.000000
   52       -3.345435   1.000000
   53       -3.242241   1.000000
   54       -3.169243   1.000000
   55       -3.117838   1.000000
   56       -3.043047   1.000000
   57       -2.988565   1.000000
   58       -2.949461   1.000000
   59       -2.857060   1.000000
   60       -2.815607   1.000000
   61       -2.656042   1.000000
   62       -2.608144   1.000000
   63       -2.589808   1.000000
   64       -2.537731   1.000000
   65       -2.510927   1.000000
   66       -2.428988   1.000000
   67       -2.326615   1.000000
   68       -2.278381   1.000000
   69       -2.201014   1.000000
   70       -1.998785   1.000000
   71       -1.899501   1.000000
   72       -1.851449   1.000000
   73       -1.776680   1.000000
   74       -1.580159   1.000000
   75       -1.462402   1.000000
   76       -1.403089   1.000000
   77       -1.342450   1.000000
   78       -1.214096   1.000000
   79       -1.128006   1.000000
   80       -0.914612   1.000000
   81       -0.645197   1.000000
   82       -0.569378   1.000000
   83       -0.420986   1.000000
   84       -0.202972   1.000000
   85       -0.061874   1.000000
   86        0.116736   1.000000
   87        0.227669   1.000000
   88        0.300802   1.000000
   89        0.382675   1.000000
   90        0.426433   1.000000
   91        0.688428   1.012613
   92        0.699802   1.017030
   93        1.005336  -0.034236
   94        1.059763  -0.012090
   95        1.101711  -0.002881
   96        1.216854  -0.000007
   97        1.266546  -0.000000
   98        1.294929  -0.000000
   99        1.387845  -0.000000
  100        1.441641  -0.000000
  101        1.575133  -0.000000
  102        1.679821  -0.000000
  103        1.725018  -0.000000
  104        1.744622  -0.000000
  105        1.767627  -0.000000
  106        1.876331  -0.000000
  107        2.059591  -0.000000
  108        2.085437  -0.000000
  109        2.153175  -0.000000
  110        2.186609  -0.000000
  111        2.231212  -0.000000
  112        2.277125  -0.000000
  113        2.290132  -0.000000
  114        2.362604  -0.000000
  115        2.452897  -0.000000
  116        2.499807  -0.000000
  117        2.560599  -0.000000
  118        2.614941  -0.000000
  119        2.978224  -0.000000
  120        3.083599  -0.000000

  0.4444444E+00  0.3795814E-15  0.1235432E-14  0.2020202E-01
    1      -12.712909   1.000000
    2      -12.505830   1.000000
    3      -11.476634   1.000000
    4      -11.288290   1.000000
    5      -10.561333   1.000000
    6      -10.377501   1.000000
    7      -10.115998   1.000000
    8      -10.113204   1.000000
    9       -9.902704   1.000000
   10       -9.767024   1.000000
   11       -9.732061   1.000000
   12       -9.664101   1.000000
   13       -9.299385   1.000000
   14       -9.290900   1.000000
   15       -8.819547   1.000000
   16       -8.613823   1.000000
   17       -8.298456   1.000000
   18       -7.982517   1.000000
   19       -7.858684   1.000000
   20       -7.825945   1.000000
   21       -7.685215   1.000000
   22       -7.519746   1.000000
   23       -7.488749   1.000000
   24       -7.265556   1.000000
   25       -7.255521   1.000000
   26       -7.225058   1.000000
   27       -6.463396   1.000000
   28       -6.253350   1.000000
   29       -5.944475   1.000000
   30       -5.672956   1.000000
   31       -5.498241   1.000000
   32       -5.332424   1.000000
   33       -5.087092   1.000000
   34       -4.713265   1.000000
   35       -4.614316   1.000000
   36       -4.548705   1.000000
   37       -4.464678   1.000000
   38       -4.427613   1.000000
   39       -4.304668   1.000000
   40       -4.259883   1.000000
   41       -4.034729   1.000000
   42       -4.027993   1.000000
   43       -3.935273   1.000000
   44       -3.852356   1.000000
   45       -3.801861   1.000000
   46       -3.599094   1.000000
   47       -3.586332   1.000000
   48       -3.543746   1.000000
   49       -3.489529   1.000000
   50       -3.388768   1.000000
   51       -3.325868   1.000000
   52       -3.312549   1.000000
   53       -3.255846   1.000000
   54       -3.192141   1.000000
   55       -3.124410   1.000000
   56       -3.028724   1.000000
   57       -2.961651   1.000000
   58       -2.890233   1.000000
   59       -2.826945   1.000000
   60       -2.751880   1.000000
   61       -2.706281   1.000000
   62       -2.641886   1.000000
   63       -2.618298   1.000000
   64       -2.575892   1.000000
   65       -2.518707   1.000000
   66       -2.502426   1.000000
   67       -2.299990   1.000000
   68       -2.267884   1.000000
   69       -2.198659   1.000000
   70       -2.110674   1.000000
   71       -1.920626   1.000000
   72       -1.844909   1.000000
   73       -1.695562   1.000000
   74       -1.582512   1.000000
   75       -1.494774   1.000000
   76       -1.449243   1.000000
   77       -1.428456   1.000000
   78       -1.170761   1.000000
   79       -1.137362   1.000000
   80       -1.051390   1.000000
   81       -0.650625   1.000000
   82       -0.521844   1.000000
   83       -0.493259   1.000000
   84       -0.218988   1.000000
   85        0.069771   1.000000
   86        0.141671   1.000000
   87        0.249555   1.000000
   88        0.309985   1.000000
   89        0.380139   1.000000
   90        0.526290   1.000005
   91        0.582308   1.000153
   92        0.802710   0.962079
   93        0.952255   0.012801
   94        0.995416  -0.035455
   95        1.131515  -0.000798
   96        1.155829  -0.000240
   97        1.220921  -0.000005
   98        1.363498  -0.000000
   99        1.416002  -0.000000
  100        1.518391  -0.000000
  101        1.547060  -0.000000
  102        1.701602  -0.000000
  103        1.721139  -0.000000
  104        1.801526  -0.000000
  105        1.869927  -0.000000
  106        1.980218  -0.000000
  107        2.035651  -0.000000
  108        2.151702  -0.000000
  109        2.173613  -0.000000
  110        2.237719  -0.000000
  111        2.275718  -0.000000
  112        2.318578  -0.000000
  113        2.355177  -0.000000
  114        2.383759  -0.000000
  115        2.401315  -0.000000
  116        2.456747  -0.000000
  117        2.543561  -0.000000
  118        2.639329  -0.000000
  119        2.828467  -0.000000
  120        2.887248  -0.000000

  0.3742002E-15  0.9090909E-01  0.1339361E-14  0.2020202E-01
    1      -13.067506   1.000000
    2      -11.768288   1.000000
    3      -11.655739   1.000000
    4      -11.200363   1.000000
    5      -10.637650   1.000000
    6      -10.365040   1.000000
    7      -10.343498   1.000000
    8      -10.314145   1.000000
    9      -10.082408   1.000000
   10       -9.745725   1.000000
   11       -9.668333   1.000000
   12       -9.471898   1.000000
   13       -9.298762   1.000000
   14       -9.270389   1.000000
   15       -8.941076   1.000000
   16       -8.799359   1.000000
   17       -8.265800   1.000000
   18       -8.173419   1.000000
   19       -7.861684   1.000000
   20       -7.744437   1.000000
   21       -7.670246   1.000000
   22       -7.289924   1.000000
   23       -7.104150   1.000000
   24       -7.054171   1.000000
   25       -6.948718   1.000000
   26       -6.912761   1.000000
   27       -6.631070   1.000000
   28       -6.364284   1.000000
   29       -5.724093   1.000000
   30       -5.627940   1.000000
   31       -5.452546   1.000000
   32       -5.310086   1.000000
   33       -5.183945   1.000000
   34       -4.975393   1.000000
   35       -4.758421   1.000000
   36       -4.695392   1.000000
   37       -4.590509   1.000000
   38       -4.382764   1.000000
   39       -4.349256   1.000000
   40       -4.287082   1.000000
   41       -4.166103   1.000000
   42       -4.078845   1.000000
   43       -4.029958   1.000000
   44       -3.934050   1.000000
   45       -3.843481   1.000000
   46       -3.818923   1.000000
   47       -3.766507   1.000000
   48       -3.701395   1.000000
   49       -3.603653   1.000000
   50       -3.531354   1.000000
   51       -3.499870   1.000000
   52       -3.435813   1.000000
   53       -3.243600   1.000000
   54       -3.205007   1.000000
   55       -3.146325   1.000000
   56       -3.078813   1.000000
   57       -3.001409   1.000000
   58       -2.887202   1.000000
   59       -2.851843   1.000000
   60       -2.795585   1.000000
   61       -2.674406   1.000000
   62       -2.567498   1.000000
   63       -2.550404   1.000000
   64       -2.464791   1.000000
   65       -2.373667   1.000000
   66       -2.330146   1.000000
   67       -2.294922   1.000000
   68       -2.214114   1.000000
   69       -2.112259   1.000000
   70       -2.064535   1.000000
   71       -1.975109   1.000000
   72       -1.960580   1.000000
   73       -1.745817   1.000000
   74       -1.387634   1.000000
   75       -1.300737   1.000000
   76       -1.236769   1.000000
   77       -1.178411   1.000000
   78       -1.104252   1.000000
   79       -0.999910   1.000000
   80       -0.968150   1.000000
   81       -0.670151   1.000000
   82       -0.440199   1.000000
   83       -0.391414   1.000000
   84       -0.257672   1.000000
   85       -0.171133   1.000000
   86       -0.019945   1.000000
   87        0.089601   1.000000
   88        0.114609   1.000000
   89        0.212387   1.000000
   90        0.512068   1.000002
   91        0.665705   1.006197
   92        0.845842   0.723296
   93        0.899125   0.289678
   94        0.927721   0.106830
   95        1.009373  -0.033121
   96        1.105756  -0.002450
   97        1.193315  -0.000029
   98        1.311181  -0.000000
   99        1.327867  -0.000000
  100        1.449506  -0.000000
  101        1.475925  -0.000000
  102        1.620288  -0.000000
  103        1.657901  -0.000000
  104        1.674153  -0.000000
  105        1.796462  -0.000000
  106        1.821257  -0.000000
  107        1.990367  -0.000000
  108        2.016245  -0.000000
  109        2.081790  -0.000000
  110        2.111563  -0.000000
  111        2.157608  -0.000000
  112        2.192045  -0.000000
  113        2.240042  -0.000000
  114        2.265027  -0.000000
  115        2.336984  -0.000000
  116        2.420641  -0.000000
  117        2.442600  -0.000000
  118        2.579637  -0.000000
  119        2.681233  -0.000000
  120        2.814792  -0.000000

  0.1111111E+00  0.9090909E-01  0.1250028E-14  0.2020202E-01
    1      -13.022085   1.000000
    2      -11.855648   1.000000
    3      -11.722642   1.000000
    4      -11.100408   1.000000
    5      -10.626823   1.000000
    6      -10.431760   1.000000
    7      -10.372784   1.000000
    8      -10.260512   1.000000
    9      -10.037094   1.000000
   10       -9.738487   1.000000
   11       -9.638167   1.000000
   12       -9.481663   1.000000
   13       -9.333778   1.000000
   14       -9.295584   1.000000
   15       -8.906469   1.000000
   16       -8.749095   1.000000
   17       -8.277532   1.000000
   18       -8.131442   1.000000
   19       -7.864262   1.000000
   20       -7.803649   1.000000
   21       -7.677429   1.000000
   22       -7.368605   1.000000
   23       -7.173927   1.000000
   24       -6.984090   1.000000
   25       -6.943234   1.000000
   26       -6.890621   1.000000
   27       -6.731650   1.000000
   28       -6.393545   1.000000
   29       -5.734198   1.000000
   30       -5.557962   1.000000
   31       -5.392782   1.000000
   32       -5.215941   1.000000
   33       -5.151017   1.000000
   34       -5.064799   1.000000
   35       -4.851023   1.000000
   36       -4.667046   1.000000
   37       -4.556757   1.000000
   38       -4.516717   1.000000
   39       -4.288560   1.000000
   40       -4.250540   1.000000
   41       -4.162479   1.000000
   42       -4.075118   1.000000
   43       -3.959017   1.000000
   44       -3.886264   1.000000
   45       -3.810953   1.000000
   46       -3.753182   1.000000
   47       -3.734546   1.000000
   48       -3.672274   1.000000
   49       -3.591275   1.000000
   50       -3.522141   1.000000
   51       -3.463870   1.000000
   52       -3.420597   1.000000
   53       -3.262576   1.000000
   54       -3.211594   1.000000
   55       -3.137872   1.000000
   56       -3.068227   1.000000
   57       -2.963363   1.000000
   58       -2.928678   1.000000
   59       -2.880424   1.000000
   60       -2.767678   1.000000
   61       -2.684320   1.000000
   62       -2.604205   1.000000
   63       -2.576781   1.000000
   64       -2.516168   1.000000
   65       -2.408585   1.000000
   66       -2.348043   1.000000
   67       -2.319766   1.000000
   68       -2.163168   1.000000
   69       -2.114154   1.000000
   70       -2.025679   1.000000
   71       -1.978913   1.000000
   72       -1.954700   1.000000
   73       -1.801388   1.000000
   74       -1.409607   1.000000
   75       -1.374538   1.000000
   76       -1.313556   1.000000
   77       -1.221780   1.000000
   78       -1.133393   1.000000
   79       -0.977663   1.000000
   80       -0.911714   1.000000
   81       -0.720901   1.000000
   82       -0.483084   1.000000
   83       -0.349805   1.000000
   84       -0.283937   1.000000
   85       -0.161712   1.000000
   86       -0.052381   1.000000
   87        0.158491   1.000000
   88        0.233897   1.000000
   89        0.272333   1.000000
   90        0.464851   1.000000
   91        0.635226   1.001936
   92        0.843242   0.742426
   93        0.894270   0.327163
   94        1.029880  -0.024671
   95        1.050946  -0.015372
   96        1.106105  -0.002416
   97        1.168981  -0.000119
   98        1.273134  -0.000000
   99        1.288991  -0.000000
  100        1.506312  -0.000000
  101        1.558683  -0.000000
  102        1.604018  -0.000000
  103        1.667063  -0.000000
  104        1.688599  -0.000000
  105        1.783243  -0.000000
  106        1.839091  -0.000000
  107        2.031139  -0.000000
  108        2.062583  -0.000000
  109        2.074509  -0.000000
  110        2.095881  -0.000000
  111        2.170396  -0.000000
  112        2.190512  -0.000000
  113        2.269074  -0.000000
  114        2.306589  -0.000000
  115        2.358078  -0.000000
  116        2.423199  -0.000000
  117        2.456370  -0.000000
  118        2.542961  -0.000000
  119        2.671380  -0.000000
  120        2.777825  -0.000000

  0.2222222E+00  0.9090909E-01  0.1327369E-14  0.2020202E-01
    1      -12.928028   1.000000
    2      -12.101159   1.000000
    3      -11.644108   1.000000
    4      -11.085905   1.000000
    5      -10.599794   1.000000
    6      -10.484670   1.000000
    7      -10.387556   1.000000
    8      -10.204391   1.000000
    9       -9.974001   1.000000
   10       -9.705412   1.000000
   11       -9.588265   1.000000
   12       -9.532902   1.000000
   13       -9.394761   1.000000
   14       -9.331733   1.000000
   15       -8.843371   1.000000
   16       -8.657080   1.000000
   17       -8.284991   1.000000
   18       -8.050646   1.000000
   19       -7.949146   1.000000
   20       -7.806175   1.000000
   21       -7.693756   1.000000
   22       -7.504388   1.000000
   23       -7.267611   1.000000
   24       -7.008358   1.000000
   25       -6.956274   1.000000
   26       -6.872274   1.000000
   27       -6.714583   1.000000
   28       -6.414318   1.000000
   29       -5.755911   1.000000
   30       -5.523044   1.000000
   31       -5.353944   1.000000
   32       -5.281741   1.000000
   33       -5.147148   1.000000
   34       -4.990253   1.000000
   35       -4.844687   1.000000
   36       -4.697508   1.000000
   37       -4.543200   1.000000
   38       -4.480410   1.000000
   39       -4.255280   1.000000
   40       -4.203887   1.000000
   41       -4.095240   1.000000
   42       -4.038487   1.000000
   43       -3.983981   1.000000
   44       -3.873744   1.000000
   45       -3.769021   1.000000
   46       -3.737812   1.000000
   47       -3.682347   1.000000
   48       -3.604097   1.000000