   72   72    1    1
  0.2168974E+02  0.1053953E-08  0.6141200E-09  0.2412750E-08  0.5000000E-15
   1.0000000000000000E-004
  CAR 
 Name                                    
    282     15    184

  0.3742002E-15  0.3742002E-15  0.1262379E-14  0.2222222E-01
    1      -14.070547   1.000000
    2      -12.937474   1.000000
    3      -12.877285   1.000000
    4      -12.811376   1.000000
    5      -11.915657   1.000000
    6      -11.728984   1.000000
    7      -11.712763   1.000000
    8      -11.694926   1.000000
    9      -11.523088   1.000000
   10      -11.359389   1.000000
   11      -11.212060   1.000000
   12      -11.155358   1.000000
   13      -11.150750   1.000000
   14      -10.820556   1.000000
   15      -10.557287   1.000000
   16      -10.248849   1.000000
   17      -10.236613   1.000000
   18      -10.229940   1.000000
   19       -9.845997   1.000000
   20       -9.761217   1.000000
   21       -9.682179   1.000000
   22       -9.628475   1.000000
   23       -9.514589   1.000000
   24       -9.331358   1.000000
   25       -8.977778   1.000000
   26       -8.940086   1.000000
   27       -8.595341   1.000000
   28       -8.536040   1.000000
   29       -8.456311   1.000000
   30       -8.295764   1.000000
   31       -8.254658   1.000000
   32       -7.928617   1.000000
   33       -7.750423   1.000000
   34       -7.350486   1.000000
   35       -7.308831   1.000000
   36       -7.166439   1.000000
   37       -7.143634   1.000000
   38       -7.026328   1.000000
   39       -7.024516   1.000000
   40       -6.847927   1.000000
   41       -6.809145   1.000000
   42       -6.709920   1.000000
   43       -6.690836   1.000000
   44       -6.606529   1.000000
   45       -6.537521   1.000000
   46       -6.527429   1.000000
   47       -6.466260   1.000000
   48       -6.266591   1.000000
   49       -6.195550   1.000000
   50       -6.171566   1.000000
   51       -5.921150   1.000000
   52       -5.867768   1.000000
   53       -5.812964   1.000000
   54       -5.713596   1.000000
   55       -5.690540   1.000000
   56       -5.633833   1.000000
   57       -5.468629   1.000000
   58       -5.463672   1.000000
   59       -5.400608   1.000000
   60       -5.271418   1.000000
   61       -5.065488   1.000000
   62       -5.058638   1.000000
   63       -4.815055   1.000000
   64       -4.797257   1.000000
   65       -4.783494   1.000000
   66       -4.735841   1.000000
   67       -4.677769   1.000000
   68       -4.675798   1.000000
   69       -4.521446   1.000000
   70       -4.462114   1.000000
   71       -4.352704   1.000000
   72       -4.305871   1.000000
   73       -4.227006   1.000000
   74       -4.220066   1.000000
   75       -4.214409   1.000000
   76       -4.160752   1.000000
   77       -4.079621   1.000000
   78       -4.038066   1.000000
   79       -4.031604   1.000000
   80       -4.017390   1.000000
   81       -3.955733   1.000000
   82       -3.931439   1.000000
   83       -3.863525   1.000000
   84       -3.836369   1.000000
   85       -3.722342   1.000000
   86       -3.693139   1.000000
   87       -3.679807   1.000000
   88       -3.657570   1.000000
   89       -3.578063   1.000000
   90       -3.546303   1.000000
   91       -3.456978   1.000000
   92       -3.289437   1.000000
   93       -3.142619   1.000000
   94       -3.103151   1.000000
   95       -3.056905   1.000000
   96       -2.919509   1.000000
   97       -2.833225   1.000000
   98       -2.810274   1.000000
   99       -2.756150   1.000000
  100       -2.652876   1.000000
  101       -2.503079   1.000000
  102       -2.472199   1.000000
  103       -2.462885   1.000000
  104       -2.459394   1.000000
  105       -2.379020   1.000000
  106       -2.242517   1.000000
  107       -2.239024   1.000000
  108       -2.209264   1.000000
  109       -2.082266   1.000000
  110       -2.051856   1.000000
  111       -2.026804   1.000000
  112       -1.957372   1.000000
  113       -1.931242   1.000000
  114       -1.833432   1.000000
  115       -1.822690   1.000000
  116       -1.792043   1.000000
  117       -1.718005   1.000000
  118       -1.697200   1.000000
  119       -1.690866   1.000000
  120       -1.565926   1.000000
  121       -1.102815   1.000000
  122       -1.083157   1.000000
  123       -1.060310   1.000000
  124       -0.931592   1.000000
  125       -0.809777   1.000000
  126       -0.776012   1.000000
  127       -0.614892   1.000000
  128       -0.538775   1.000000
  129       -0.456617   1.000000
  130       -0.382758   1.000000
  131       -0.284569   1.000000
  132       -0.263030   1.000000
  133       -0.177022   1.000000
  134       -0.080666   1.000000
  135        0.100824   1.000758
  136        0.137908   1.003662
  137        0.235496   1.035391
  138        0.246864   1.033967
  139        0.290431   0.958665
  140        0.298983   0.924903
  141        0.321353   0.802115
  142        0.448688  -0.008901
  143        0.481075  -0.035423
  144        0.503712  -0.030374
  145        0.542775  -0.013420
  146        0.573218  -0.005113
  147        0.576789  -0.004493
  148        0.695882  -0.000011
  149        0.722611  -0.000002
  150        0.760154  -0.000000
  151        0.967160  -0.000000
  152        1.046921  -0.000000
  153        1.088833  -0.000000
  154        1.097107  -0.000000
  155        1.185498  -0.000000
  156        1.192942  -0.000000
  157        1.244437  -0.000000
  158        1.276574  -0.000000
  159        1.280452  -0.000000
  160        1.365057  -0.000000
  161        1.369615  -0.000000
  162        1.390314  -0.000000
  163        1.435189  -0.000000
  164        1.498479  -0.000000
  165        1.621298  -0.000000
  166        1.634596  -0.000000
  167        1.642475  -0.000000
  168        1.647436  -0.000000
  169        1.664008  -0.000000
  170        1.698258  -0.000000
  171        1.717572  -0.000000
  172        1.752341  -0.000000
  173        1.806983  -0.000000
  174        1.849959  -0.000000
  175        2.230813  -0.000000
  176        2.252325  -0.000000
  177        2.280839  -0.000000
  178        2.337068  -0.000000
  179        2.444101  -0.000000
  180        2.532248  -0.000000
  181        2.757235  -0.000000
  182        3.134458   0.000000
  183        3.162320   0.000000
  184        3.885737   0.000000

  0.2000000E+00  0.3742002E-15  0.1262379E-14  0.4444444E-01
    1      -14.021975   1.000000
    2      -13.314881   1.000000
    3      -12.766372   1.000000
    4      -12.427405   1.000000
    5      -12.105000   1.000000
    6      -11.905200   1.000000
    7      -11.747474   1.000000
    8      -11.450998   1.000000
    9      -11.357176   1.000000
   10      -11.265204   1.000000
   11      -11.210476   1.000000
   12      -11.172742   1.000000
   13      -11.053364   1.000000
   14      -10.887996   1.000000
   15      -10.682215   1.000000
   16      -10.621288   1.000000
   17      -10.584855   1.000000
   18       -9.835019   1.000000
   19       -9.814396   1.000000
   20       -9.690896   1.000000
   21       -9.602896   1.000000
   22       -9.567659   1.000000
   23       -9.490090   1.000000
   24       -9.472730   1.000000
   25       -9.126686   1.000000
   26       -8.868485   1.000000
   27       -8.449692   1.000000
   28       -8.428909   1.000000
   29       -8.227748   1.000000
   30       -8.225928   1.000000
   31       -8.201018   1.000000
   32       -8.175740   1.000000
   33       -7.626017   1.000000
   34       -7.594872   1.000000
   35       -7.401329   1.000000
   36       -7.287577   1.000000
   37       -7.258999   1.000000
   38       -7.211801   1.000000
   39       -7.020323   1.000000
   40       -6.878254   1.000000
   41       -6.757335   1.000000
   42       -6.745276   1.000000
   43       -6.687574   1.000000
   44       -6.592229   1.000000
   45       -6.559856   1.000000
   46       -6.457098   1.000000
   47       -6.276660   1.000000
   48       -6.254133   1.000000
   49       -6.174965   1.000000
   50       -6.122782   1.000000
   51       -5.872064   1.000000
   52       -5.846892   1.000000
   53       -5.717099   1.000000
   54       -5.711346   1.000000
   55       -5.589699   1.000000
   56       -5.550116   1.000000
   57       -5.466265   1.000000
   58       -5.452247   1.000000
   59       -5.434747   1.000000
   60       -5.270609   1.000000
   61       -5.257087   1.000000
   62       -4.982299   1.000000
   63       -4.937515   1.000000
   64       -4.842574   1.000000
   65       -4.763265   1.000000
   66       -4.747230   1.000000
   67       -4.738359   1.000000
   68       -4.671766   1.000000
   69       -4.430418   1.000000
   70       -4.418153   1.000000
   71       -4.321491   1.000000
   72       -4.290460   1.000000
   73       -4.269473   1.000000
   74       -4.241313   1.000000
   75       -4.227504   1.000000
   76       -4.171338   1.000000
   77       -4.055480   1.000000
   78       -4.041061   1.000000
   79       -4.015723   1.000000
   80       -4.002395   1.000000
   81       -3.985596   1.000000
   82       -3.937430   1.000000
   83       -3.838713   1.000000
   84       -3.791968   1.000000
   85       -3.711942   1.000000
   86       -3.693776   1.000000
   87       -3.676101   1.000000
   88       -3.645194   1.000000
   89       -3.599547   1.000000
   90       -3.570637   1.000000
   91       -3.499297   1.000000
   92       -3.258447   1.000000
   93       -3.225956   1.000000
   94       -3.188275   1.000000
   95       -3.018975   1.000000
   96       -3.010459   1.000000
   97       -2.907684   1.000000
   98       -2.839528   1.000000
   99       -2.819740   1.000000
  100       -2.764560   1.000000
  101       -2.459541   1.000000
  102       -2.385173   1.000000
  103       -2.349636   1.000000
  104       -2.348721   1.000000
  105       -2.303492   1.000000
  106       -2.293962   1.000000
  107       -2.229943   1.000000
  108       -2.139356   1.000000
  109       -2.071741   1.000000
  110       -2.052947   1.000000
  111       -2.019241   1.000000
  112       -1.924034   1.000000
  113       -1.894236   1.000000
  114       -1.816974   1.000000
  115       -1.804926   1.000000
  116       -1.757471   1.000000
  117       -1.685519   1.000000
  118       -1.625872   1.000000
  119       -1.572390   1.000000
  120       -1.481639   1.000000
  121       -1.179265   1.000000
  122       -1.132421   1.000000
  123       -1.057002   1.000000
  124       -0.972000   1.000000
  125       -0.910311   1.000000
  126       -0.847957   1.000000
  127       -0.631999   1.000000
  128       -0.624003   1.000000
  129       -0.543232   1.000000
  130       -0.517603   1.000000
  131       -0.404177   1.000000
  132       -0.335613   1.000000
  133       -0.270241   1.000000
  134       -0.155601   1.000000
  135       -0.028391   1.000000
  136        0.056178   1.000075
  137        0.241780   1.035175
  138        0.287931   0.967173
  139        0.289412   0.962205
  140        0.364456   0.463062
  141        0.430938   0.037190
  142        0.510529  -0.027454
  143        0.524439  -0.021067
  144        0.584618  -0.003346
  145        0.599702  -0.001818
  146        0.614163  -0.000963
  147        0.625749  -0.000559
  148        0.636945  -0.000321
  149        0.676136  -0.000037
  150        0.804484  -0.000000
  151        1.017692  -0.000000
  152        1.093952  -0.000000
  153        1.128375  -0.000000
  154        1.200844  -0.000000
  155        1.210013  -0.000000
  156        1.230554  -0.000000
  157        1.241704  -0.000000
  158        1.252517  -0.000000
  159        1.354340  -0.000000
  160        1.399076  -0.000000
  161        1.421129  -0.000000
  162        1.448829  -0.000000
  163        1.491704  -0.000000
  164        1.509241  -0.000000
  165        1.561486  -0.000000
  166        1.602480  -0.000000
  167        1.644880  -0.000000
  168        1.659446  -0.000000
  169        1.681017  -0.000000
  170        1.699569  -0.000000
  171        1.769994  -0.000000
  172        1.820736  -0.000000
  173        1.852882  -0.000000
  174        1.941496  -0.000000
  175        2.019659  -0.000000
  176        2.069935  -0.000000
  177        2.126543  -0.000000
  178        2.338825  -0.000000
  179        2.510222  -0.000000
  180        2.549952  -0.000000
  181        2.693621  -0.000000
  182        3.164326   0.000000
  183        3.213744   0.000000
  184        3.851930   0.000000

  0.4000000E+00  0.3742002E-15  0.1262379E-14  0.4444444E-01
    1      -13.877347   1.000000
    2      -13.639866   1.000000
    3      -12.632043   1.000000
    4      -12.410469   1.000000
    5      -11.886574   1.000000
    6      -11.873423   1.000000
    7      -11.819763   1.000000
    8      -11.363771   1.000000
    9      -11.352184   1.000000
   10      -11.296862   1.000000
   11      -11.183053   1.000000
   12      -11.054835   1.000000
   13      -11.039864   1.000000
   14      -10.919795   1.000000
   15      -10.867753   1.000000
   16      -10.764645   1.000000
   17      -10.733628   1.000000
   18      -10.170874   1.000000
   19       -9.756108   1.000000
   20       -9.713413   1.000000
   21       -9.543863   1.000000
   22       -9.489055   1.000000
   23       -9.385920   1.000000
   24       -9.317716   1.000000
   25       -9.096030   1.000000
   26       -8.878741   1.000000
   27       -8.427102   1.000000
   28       -8.298063   1.000000
   29       -8.005221   1.000000
   30       -7.984248   1.000000
   31       -7.982097   1.000000
   32       -7.976182   1.000000
   33       -7.885141   1.000000
   34       -7.816302   1.000000
   35       -7.686268   1.000000
   36       -7.686244   1.000000
   37       -7.442010   1.000000
   38       -7.321239   1.000000
   39       -7.227936   1.000000
   40       -6.934949   1.000000
   41       -6.685489   1.000000
   42       -6.628843   1.000000
   43       -6.622379   1.000000
   44       -6.555819   1.000000
   45       -6.405645   1.000000
   46       -6.295711   1.000000
   47       -6.280269   1.000000
   48       -6.149926   1.000000
   49       -6.117108   1.000000
   50       -6.062507   1.000000
   51       -5.947489   1.000000
   52       -5.891712   1.000000
   53       -5.806503   1.000000
   54       -5.725157   1.000000
   55       -5.613530   1.000000
   56       -5.440834   1.000000
   57       -5.424162   1.000000
   58       -5.423417   1.000000
   59       -5.261039   1.000000
   60       -5.176101   1.000000
   61       -5.168898   1.000000
   62       -5.008095   1.000000
   63       -4.984444   1.000000
   64       -4.918789   1.000000
   65       -4.839529   1.000000
   66       -4.780563   1.000000
   67       -4.701448   1.000000
   68       -4.589026   1.000000
   69       -4.521271   1.000000
   70       -4.505571   1.000000
   71       -4.461405   1.000000
   72       -4.335576   1.000000
   73       -4.249841   1.000000
   74       -4.218625   1.000000
   75       -4.213962   1.000000
   76       -4.191473   1.000000
   77       -4.062617   1.000000
   78       -4.040146   1.000000
   79       -4.021460   1.000000
   80       -3.968832   1.000000
   81       -3.949485   1.000000
   82       -3.903980   1.000000
   83       -3.781116   1.000000
   84       -3.773767   1.000000
   85       -3.692215   1.000000
   86       -3.681541   1.000000
   87       -3.670211   1.000000
   88       -3.645726   1.000000
   89       -3.510773   1.000000
   90       -3.509579   1.000000
   91       -3.400375   1.000000
   92       -3.360191   1.000000
   93       -3.341983   1.000000
   94       -3.267702   1.000000
   95       -3.252300   1.000000
   96       -3.138872   1.000000
   97       -3.057975   1.000000
   98       -2.952992   1.000000
   99       -2.849897   1.000000
  100       -2.594110   1.000000
  101       -2.467186   1.000000
  102       -2.462131   1.000000
  103       -2.363188   1.000000
  104       -2.358941   1.000000
  105       -2.144720   1.000000
  106       -2.129859   1.000000
  107       -2.119379   1.000000
  108       -2.077173   1.000000
  109       -2.007388   1.000000
  110       -1.948555   1.000000
  111       -1.933785   1.000000
  112       -1.897200   1.000000
  113       -1.846086   1.000000
  114       -1.826554   1.000000
  115       -1.708614   1.000000
  116       -1.675268   1.000000
  117       -1.546501   1.000000
  118       -1.444583   1.000000
  119       -1.381786   1.000000
  120       -1.346108   1.000000
  121       -1.275101   1.000000
  122       -1.238459   1.000000
  123       -1.169369   1.000000
  124       -1.140651   1.000000
  125       -1.090423   1.000000
  126       -0.918370   1.000000
  127       -0.915106   1.000000
  128       -0.776054   1.000000
  129       -0.720216   1.000000
  130       -0.706377   1.000000
  131       -0.512678   1.000000
  132       -0.447982   1.000000
  133       -0.265175   1.000000
  134       -0.234658   1.000000
  135       -0.071348   1.000000
  136        0.164076   1.009075
  137        0.193815   1.020199
  138        0.213089   1.028968
  139        0.279839   0.990676
  140        0.322911   0.791799
  141        0.404864   0.159919
  142        0.460427  -0.025477
  143        0.495477  -0.033315
  144        0.600035  -0.001793
  145        0.602215  -0.001634
  146        0.635967  -0.000337
  147        0.717258  -0.000003
  148        0.874523  -0.000000
  149        0.878267  -0.000000
  150        0.913430  -0.000000
  151        1.016818  -0.000000
  152        1.124599  -0.000000
  153        1.146541  -0.000000
  154        1.224618  -0.000000
  155        1.254158  -0.000000
  156        1.311364  -0.000000
  157        1.315656  -0.000000
  158        1.417567  -0.000000
  159        1.449032  -0.000000
  160        1.470010  -0.000000
  161        1.493099  -0.000000
  162        1.525109  -0.000000
  163        1.538718  -0.000000
  164        1.557068  -0.000000
  165        1.572906  -0.000000
  166        1.600550  -0.000000
  167        1.633648  -0.000000
  168        1.699787  -0.000000
  169        1.704947  -0.000000
  170        1.721814  -0.000000
  171        1.737742  -0.000000
  172        1.753605  -0.000000
  173        1.835448  -0.000000
  174        1.836302  -0.000000
  175        1.897923  -0.000000
  176        1.913199  -0.000000
  177        1.989446  -0.000000
  178        2.013384  -0.000000
  179        2.057507  -0.000000
  180        2.100323  -0.000000
  181        2.647744  -0.000000
  182        2.818215  -0.000000
  183        3.022011  -0.000000
  184        3.145991   0.000000

  0.3742002E-15  0.1111111E+00  0.1262379E-14  0.4444444E-01
    1      -14.023844   1.000000
    2      -12.897949   1.000000
    3      -12.844571   1.000000
    4      -12.772173   1.000000
    5      -12.019387   1.000000
    6      -11.731665   1.000000
    7      -11.697589   1.000000
    8      -11.686197   1.000000
    9      -11.561373   1.000000
   10      -11.404711   1.000000
   11      -11.190840   1.000000
   12      -11.160309   1.000000
   13      -11.155404   1.000000
   14      -10.792701   1.000000
   15      -10.577537   1.000000
   16      -10.230361   1.000000
   17      -10.215554   1.000000
   18      -10.191044   1.000000
   19       -9.819666   1.000000
   20       -9.795522   1.000000
   21       -9.703796   1.000000
   22       -9.657724   1.000000
   23       -9.528573   1.000000
   24       -9.314033   1.000000
   25       -9.000059   1.000000
   26       -8.915906   1.000000
   27       -8.595431   1.000000
   28       -8.538270   1.000000
   29       -8.437687   1.000000
   30       -8.330578   1.000000
   31       -8.078223   1.000000
   32       -7.941813   1.000000
   33       -7.866949   1.000000
   34       -7.458608   1.000000
   35       -7.433388   1.000000
   36       -7.136276   1.000000
   37       -7.120849   1.000000
   38       -7.013709   1.000000
   39       -7.005012   1.000000
   40       -6.790011   1.000000
   41       -6.730960   1.000000
   42       -6.718926   1.000000
   43       -6.696573   1.000000
   44       -6.611610   1.000000
   45       -6.515972   1.000000
   46       -6.504854   1.000000
   47       -6.479723   1.000000
   48       -6.270828   1.000000
   49       -6.246493   1.000000
   50       -6.098482   1.000000
   51       -5.910100   1.000000
   52       -5.876845   1.000000
   53       -5.747384   1.000000
   54       -5.724574   1.000000
   55       -5.667948   1.000000
   56       -5.633114   1.000000
   57       -5.446650   1.000000
   58       -5.383425   1.000000
   59       -5.342086   1.000000
   60       -5.259518   1.000000
   61       -5.066059   1.000000
   62       -5.018018   1.000000
   63       -4.891457   1.000000
   64       -4.745197   1.000000
   65       -4.742571   1.000000
   66       -4.739505   1.000000
   67       -4.665626   1.000000
   68       -4.661333   1.000000
   69       -4.489395   1.000000
   70       -4.461893   1.000000
   71       -4.382242   1.000000
   72       -4.350734   1.000000
   73       -4.263183   1.000000
   74       -4.260034   1.000000
   75       -4.208097   1.000000
   76       -4.161663   1.000000
   77       -4.161388   1.000000
   78       -4.126832   1.000000
   79       -4.103352   1.000000
   80       -4.072753   1.000000
   81       -4.033558   1.000000
   82       -3.849657   1.000000
   83       -3.848794   1.000000
   84       -3.838198   1.000000
   85       -3.786872   1.000000
   86       -3.715844   1.000000
   87       -3.692909   1.000000
   88       -3.627487   1.000000
   89       -3.621073   1.000000
   90       -3.600629   1.000000
   91       -3.506760   1.000000
   92       -3.343337   1.000000
   93       -3.090492   1.000000
   94       -3.003717   1.000000
   95       -2.968347   1.000000
   96       -2.865604   1.000000
   97       -2.859561   1.000000
   98       -2.802776   1.000000
   99       -2.735425   1.000000
  100       -2.665568   1.000000
  101       -2.602073   1.000000
  102       -2.578152   1.000000
  103       -2.488770   1.000000
  104       -2.405983   1.000000
  105       -2.348546   1.000000
  106       -2.326592   1.000000
  107       -2.281093   1.000000
  108       -2.207761   1.000000
  109       -2.130996   1.000000
  110       -2.119809   1.000000
  111       -2.078579   1.000000
  112       -1.973240   1.000000
  113       -1.930634   1.000000
  114       -1.827719   1.000000
  115       -1.815182   1.000000
  116       -1.796118   1.000000
  117       -1.683008   1.000000
  118       -1.661324   1.000000
  119       -1.577147   1.000000
  120       -1.484471   1.000000
  121       -1.184393   1.000000
  122       -1.089960   1.000000
  123       -0.934698   1.000000
  124       -0.925369   1.000000
  125       -0.858523   1.000000
  126       -0.762631   1.000000
  127       -0.678468   1.000000
  128       -0.648166   1.000000
  129       -0.591262   1.000000
  130       -0.369626   1.000000
  131       -0.311256   1.000000
  132       -0.255044   1.000000
  133       -0.088332   1.000000
  134       -0.035805   1.000000
  135        0.065493   1.000126
  136        0.156746   1.007166
  137        0.195611   1.021011
  138        0.203193   1.024504
  139        0.227702   1.034140
  140        0.237097   1.035454
  141        0.338271   0.679833
  142        0.339387   0.671080
  143        0.489969  -0.034695
  144        0.491843  -0.034291
  145        0.506892  -0.029050
  146        0.614800  -0.000936
  147        0.684033  -0.000023
  148        0.732735  -0.000001
  149        0.909008  -0.000000
  150        0.912279  -0.000000
  151        1.014701  -0.000000
  152        1.022667  -0.000000
  153        1.026279  -0.000000
  154        1.191954  -0.000000
  155        1.194276  -0.000000
  156        1.210711  -0.000000
  157        1.253187  -0.000000
  158        1.260360  -0.000000
  159        1.362635  -0.000000
  160        1.371263  -0.000000
  161        1.377858  -0.000000
  162        1.401968  -0.000000
  163        1.426655  -0.000000
  164        1.432817  -0.000000
  165        1.532888  -0.000000
  166        1.581432  -0.000000
  167        1.614966  -0.000000
  168        1.657808  -0.000000
  169        1.689685  -0.000000
  170        1.710077  -0.000000
  171        1.749807  -0.000000
  172        1.763033  -0.000000
  173        1.810931  -0.000000
  174        1.854243  -0.000000
  175        1.857860  -0.000000
  176        1.894366  -0.000000
  177        1.943039  -0.000000
  178        1.990920  -0.000000
  179        2.278742  -0.000000
  180        2.297165  -0.000000
  181        2.397265  -0.000000
  182        2.460975  -0.000000
  183        2.593014  -0.000000
  184        3.233418   0.000000

  0.2000000E+00  0.1111111E+00  0.1262379E-14  0.8888889E-01
    1      -13.975674   1.000000
    2      -13.274699   1.000000
    3      -12.727588   1.000000
    4      -12.396212   1.000000
    5      -12.074211   1.000000
    6      -12.002739   1.000000
    7      -11.801008   1.000000
    8      -11.472104   1.000000
    9      -11.399728   1.000000
   10      -11.240987   1.000000
   11      -11.231647   1.000000
   12      -11.147153   1.000000
   13      -11.051152   1.000000
   14      -10.867150   1.000000
   15      -10.660534   1.000000
   16      -10.633259   1.000000
   17      -10.562743   1.000000
   18       -9.818476   1.000000
   19       -9.801880   1.000000
   20       -9.720157   1.000000
   21       -9.623640   1.000000
   22       -9.560136   1.000000
   23       -9.498863   1.000000
   24       -9.474501   1.000000
   25       -9.122561   1.000000
   26       -8.867758   1.000000
   27       -8.451917   1.000000
   28       -8.425807   1.000000
   29       -8.251374   1.000000
   30       -8.233510   1.000000
   31       -8.198381   1.000000
   32       -8.012536   1.000000
   33       -7.730615   1.000000
   34       -7.673615   1.000000
   35       -7.480681   1.000000
   36       -7.245779   1.000000
   37       -7.204359   1.000000
   38       -7.182415   1.000000
   39       -6.997914   1.000000
   40       -6.866047   1.000000
   41       -6.747348   1.000000
   42       -6.723564   1.000000
   43       -6.718496   1.000000
   44       -6.675978   1.000000
   45       -6.578467   1.000000
   46       -6.544172   1.000000
   47       -6.286315   1.000000
   48       -6.221023   1.000000
   49       -6.063199   1.000000
   50       -6.039929   1.000000
   51       -5.870516   1.000000
   52       -5.836208   1.000000
   53       -5.743740   1.000000
   54       -5.649110   1.000000
   55       -5.597708   1.000000
   56       -5.561469   1.000000
   57       -5.451939   1.000000
   58       -5.390121   1.000000
   59       -5.352275   1.000000
   60       -5.252265   1.000000
   61       -5.242627   1.000000
   62       -4.950108   1.000000
   63       -4.943479   1.000000
   64       -4.817712   1.000000
   65       -4.783185   1.000000
   66       -4.710139   1.000000
   67       -4.673066   1.000000
   68       -4.643288   1.000000
   69       -4.450713   1.000000
   70       -4.447263   1.000000
   71       -4.343447   1.000000
   72       -4.274735   1.000000
   73       -4.271221   1.000000
   74       -4.249416   1.000000
   75       -4.244126   1.000000
   76       -4.224541   1.000000
   77       -4.180099   1.000000
   78       -4.143415   1.000000
   79       -4.098326   1.000000
   80       -4.066557   1.000000
   81       -3.975019   1.000000
   82       -3.923990   1.000000
   83       -3.832483   1.000000
   84       -3.818628   1.000000
   85       -3.745144   1.000000
   86       -3.712927   1.000000
   87       -3.691735   1.000000
   88       -3.688739   1.000000
   89       -3.601072   1.000000
   90       -3.580586   1.000000
   91       -3.463116   1.000000
   92       -3.300714   1.000000
   93       -3.188148   1.000000
   94       -3.070380   1.000000
   95       -3.025788   1.000000
   96       -2.984911   1.000000
   97       -2.930546   1.000000
   98       -2.865510   1.000000
   99       -2.848371   1.000000
  100       -2.743537   1.000000
  101       -2.521811   1.000000
  102       -2.450373   1.000000
  103       -2.412809   1.000000
  104       -2.370985   1.000000
  105       -2.351900   1.000000
  106       -2.241820   1.000000
  107       -2.196054   1.000000
  108       -2.132762   1.000000
  109       -2.121677   1.000000
  110       -2.070985   1.000000
  111       -2.021864   1.000000
  112       -2.007832   1.000000
  113       -1.881826   1.000000
  114       -1.864980   1.000000
  115       -1.811487   1.000000
  116       -1.795089   1.000000
  117       -1.704898   1.000000
  118       -1.559965   1.000000
  119       -1.506563   1.000000
  120       -1.422449   1.000000
  121       -1.245820   1.000000
  122       -1.091591   1.000000
  123       -1.009658   1.000000
  124       -0.976909   1.000000
  125       -0.961025   1.000000
  126       -0.846942   1.000000
  127       -0.830656   1.000000
  128       -0.682485   1.000000
  129       -0.497374   1.000000
  130       -0.457697   1.000000
  131       -0.300336   1.000000
  132       -0.265204   1.000000
  133       -0.119661   1.000000
  134       -0.078912   1.000000
  135       -0.027924   1.000000
  136        0.004113   1.000003
  137        0.106456   1.000983
  138        0.182464   1.015362
  139        0.235830   1.035410
  140        0.374346   0.380673
  141        0.382164   0.318119
  142        0.431667   0.034729
  143        0.445301  -0.002211
  144        0.538355  -0.015106
  145        0.548753  -0.011330
  146        0.620401  -0.000721
  147        0.770463  -0.000000
  148        0.787684  -0.000000
  149        0.826916  -0.000000
  150        0.919122  -0.000000
  151        0.974734  -0.000000
  152        1.055997  -0.000000
  153        1.129883  -0.000000
  154        1.237620  -0.000000
  155        1.238775  -0.000000
  156        1.275332  -0.000000
  157        1.309127  -0.000000