 running on   72 total cores
 distrk:  each k-point on   72 cores,    1 groups
 distr:  one band on    9 cores,    8 groups
 using from now: INCAR     
 vasp.5.4.4.18Apr17-6-g9f103f2a35 (build Dec  7 2020 12:43:57) complex           
 POSCAR found type information on POSCAR  Mo V  B 
 POSCAR found :  3 types and      72 ions
 scaLAPACK will be used

 ----------------------------------------------------------------------------- 
|                                                                             |
|  ADVICE TO THIS USER RUNNING 'VASP/VAMP'   (HEAR YOUR MASTER'S VOICE ...):  |
|                                                                             |
|      You enforced a specific xc-type in the INCAR file,                     |
|      a different type was found on the POTCAR file                          |
|          I HOPE YOU KNOW, WHAT YOU ARE  DOING                               |
|                                                                             |
 ----------------------------------------------------------------------------- 

 LDA part: xc-table for Pade appr. of Perdew
 POSCAR, INCAR and KPOINTS ok, starting setup
 resort distribution
 resort distribution
 resort distribution
 resort distribution
 resort distribution
 resort distribution
 resort distribution
 resort distribution
 resort distribution
 resort distribution
 resort distribution
 resort distribution
 resort distribution
 resort distribution
 resort distribution
 resort distribution
 resort distribution
 resort distribution
 resort distribution
 resort distribution
 resort distribution
 resort distribution
 resort distribution
 resort distribution
 resort distribution
 resort distribution
 resort distribution
 resort distribution
 resort distribution
 resort distribution
 resort distribution
 resort distribution
 resort distribution
 resort distribution
 resort distribution
 resort distribution
 resort distribution
 resort distribution
 resort distribution
 resort distribution
 resort distribution
 resort distribution
 resort distribution
 resort distribution
 resort distribution
 resort distribution
 resort distribution
 resort distribution
 resort distribution
 resort distribution
 resort distribution
 resort distribution
 resort distribution
 resort distribution
 resort distribution
 resort distribution
 resort distribution
 resort distribution
 resort distribution
 resort distribution
 resort distribution
 resort distribution
 resort distribution
 resort distribution
 resort distribution
 resort distribution
 resort distribution
 resort distribution
 resort distribution
 resort distribution
 resort distribution
 resort distribution
 FFT: planning ...
 WAVECAR not read
 augmentation electrons   282.03519387008726     
 soft         electrons   0.0000000000000000     
 augmentation electrons   282.03519387008726     
 soft         electrons   0.0000000000000000     
 augmentation electrons   282.03519387008726     
 soft         electrons   0.0000000000000000     
 augmentation electrons   282.03519387008726     
 soft         electrons   0.0000000000000000     
 augmentation electrons   282.03519387008726     
 soft         electrons   0.0000000000000000     
 augmentation electrons   282.03519387008726     
 soft         electrons   0.0000000000000000     
 augmentation electrons   282.03519387008726     
 soft         electrons   0.0000000000000000     
 augmentation electrons   282.03519387008726     
 soft         electrons   0.0000000000000000     
 augmentation electrons   282.03519387008726     
 soft         electrons   0.0000000000000000     
 augmentation electrons   282.03519387008726     
 soft         electrons   0.0000000000000000     
 augmentation electrons   282.03519387008726     
 soft         electrons   0.0000000000000000     
 augmentation electrons   282.03519387008726     
 soft         electrons   0.0000000000000000     
 augmentation electrons   282.03519387008726     
 soft         electrons   0.0000000000000000     
 augmentation electrons   282.03519387008726     
 soft         electrons   0.0000000000000000     
 augmentation electrons   282.03519387008726     
 soft         electrons   0.0000000000000000     
 augmentation electrons   282.03519387008726     
 soft         electrons   0.0000000000000000     
 augmentation electrons   282.03519387008726     
 soft         electrons   0.0000000000000000     
 augmentation electrons   282.03519387008726     
 soft         electrons   0.0000000000000000     
 augmentation electrons   282.03519387008726     
 soft         electrons   0.0000000000000000     
 augmentation electrons   282.03519387008726     
 soft         electrons   0.0000000000000000     
 augmentation electrons   282.03519387008726     
 soft         electrons   0.0000000000000000     
 augmentation electrons   282.03519387008726     
 soft         electrons   0.0000000000000000     
 augmentation electrons   282.03519387008726     
 soft         electrons   0.0000000000000000     
 augmentation electrons   282.03519387008726     
 soft         electrons   0.0000000000000000     
 augmentation electrons   282.03519387008726     
 soft         electrons   0.0000000000000000     
 augmentation electrons   282.03519387008726     
 soft         electrons   0.0000000000000000     
 augmentation electrons   282.03519387008726     
 soft         electrons   0.0000000000000000     
 augmentation electrons   282.03519387008726     
 soft         electrons   0.0000000000000000     
 augmentation electrons   282.03519387008726     
 soft         electrons   0.0000000000000000     
 augmentation electrons   282.03519387008726     
 soft         electrons   0.0000000000000000     
 augmentation electrons   282.03519387008726     
 soft         electrons   0.0000000000000000     
 augmentation electrons   282.03519387008726     
 soft         electrons   0.0000000000000000     
 augmentation electrons   282.03519387008726     
 soft         electrons   0.0000000000000000     
 augmentation electrons   282.03519387008726     
 soft         electrons   0.0000000000000000     
 augmentation electrons   282.03519387008726     
 soft         electrons   0.0000000000000000     
 augmentation electrons   282.03519387008726     
 soft         electrons   0.0000000000000000     
 augmentation electrons   282.03519387008726     
 soft         electrons   0.0000000000000000     
 augmentation electrons   282.03519387008726     
 soft         electrons   0.0000000000000000     
 augmentation electrons   282.03519387008726     
 soft         electrons   0.0000000000000000     
 augmentation electrons   282.03519387008726     
 soft         electrons   0.0000000000000000     
 augmentation electrons   282.03519387008726     
 soft         electrons   0.0000000000000000     
 augmentation electrons   282.03519387008726     
 soft         electrons   0.0000000000000000     
 augmentation electrons   282.03519387008726     
 soft         electrons   0.0000000000000000     
 augmentation electrons   282.03519387008726     
 soft         electrons   0.0000000000000000     
 augmentation electrons   282.03519387008726     
 soft         electrons   0.0000000000000000     
 augmentation electrons   282.03519387008726     
 soft         electrons   0.0000000000000000     
 augmentation electrons   282.03519387008726     
 soft         electrons   0.0000000000000000     
 augmentation electrons   282.03519387008726     
 soft         electrons   0.0000000000000000     
 augmentation electrons   282.03519387008726     
 soft         electrons   0.0000000000000000     
 augmentation electrons   282.03519387008726     
 soft         electrons   0.0000000000000000     
 augmentation electrons   282.03519387008726     
 soft         electrons   0.0000000000000000     
 augmentation electrons   282.03519387008726     
 soft         electrons   0.0000000000000000     
 augmentation electrons   282.03519387008726     
 soft         electrons   0.0000000000000000     
 augmentation electrons   282.03519387008726     
 soft         electrons   0.0000000000000000     
 augmentation electrons   282.03519387008726     
 soft         electrons   0.0000000000000000     
 augmentation electrons   282.03519387008726     
 soft         electrons   0.0000000000000000     
 augmentation electrons   282.03519387008726     
 soft         electrons   0.0000000000000000     
 augmentation electrons   282.03519387008726     
 soft         electrons   0.0000000000000000     
 augmentation electrons   282.03519387008726     
 soft         electrons   0.0000000000000000     
 augmentation electrons   282.03519387008726     
 soft         electrons   0.0000000000000000     
 augmentation electrons   282.03519387008726     
 soft         electrons   0.0000000000000000     
 augmentation electrons   282.03519387008726     
 soft         electrons   0.0000000000000000     
 augmentation electrons   282.03519387008726     
 soft         electrons   0.0000000000000000     
 augmentation electrons   282.03519387008726     
 soft         electrons   0.0000000000000000     
 augmentation electrons   282.03519387008726     
 soft         electrons   0.0000000000000000     
 augmentation electrons   282.03519387008726     
 soft         electrons   0.0000000000000000     
 augmentation electrons   282.03519387008726     
 soft         electrons   0.0000000000000000     
 augmentation electrons   282.03519387008726     
 soft         electrons   0.0000000000000000     
 augmentation electrons   282.03519387008726     
 soft         electrons   0.0000000000000000     
 augmentation electrons   282.03519387008726     
 soft         electrons   0.0000000000000000     
 augmentation electrons   282.03519387008726     
 soft         electrons   0.0000000000000000     
 augmentation electrons   282.03519387008726     
 soft         electrons   0.0000000000000000     
 total        electrons   282.03519387008726     
 total        electrons   282.03519387008726     
 total        electrons   282.03519387008726     
 total        electrons   282.03519387008726     
 total        electrons   282.03519387008726     
 total        electrons   282.03519387008726     
 total        electrons   282.03519387008726     
 total        electrons   282.03519387008726     
 total        electrons   282.03519387008726     
 total        electrons   282.03519387008726     
 total        electrons   282.03519387008726     
 total        electrons   282.03519387008726     
 total        electrons   282.03519387008726     
 total        electrons   282.03519387008726     
 total        electrons   282.03519387008726     
 total        electrons   282.03519387008726     
 total        electrons   282.03519387008726     
 total        electrons   282.03519387008726     
 total        electrons   282.03519387008726     
 total        electrons   282.03519387008726     
 total        electrons   282.03519387008726     
 total        electrons   282.03519387008726     
 total        electrons   282.03519387008726     
 total        electrons   282.03519387008726     
 total        electrons   282.03519387008726     
 total        electrons   282.03519387008726     
 total        electrons   282.03519387008726     
 total        electrons   282.03519387008726     
 total        electrons   282.03519387008726     
 total        electrons   282.03519387008726     
 total        electrons   282.03519387008726     
 total        electrons   282.03519387008726     
 total        electrons   282.03519387008726     
 total        electrons   282.03519387008726     
 total        electrons   282.03519387008726     
 total        electrons   282.03519387008726     
 total        electrons   282.03519387008726     
 total        electrons   282.03519387008726     
 total        electrons   282.03519387008726     
 total        electrons   282.03519387008726     
 total        electrons   282.03519387008726     
 total        electrons   282.03519387008726     
 total        electrons   282.03519387008726     
 total        electrons   282.03519387008726     
 total        electrons   282.03519387008726     
 total        electrons   282.03519387008726     
 total        electrons   282.03519387008726     
 total        electrons   282.03519387008726     
 total        electrons   282.03519387008726     
 total        electrons   282.03519387008726     
 total        electrons   282.03519387008726     
 total        electrons   282.03519387008726     
 total        electrons   282.03519387008726     
 total        electrons   282.03519387008726     
 total        electrons   282.03519387008726     
 total        electrons   282.03519387008726     
 total        electrons   282.03519387008726     
 total        electrons   282.03519387008726     
 total        electrons   282.03519387008726     
 total        electrons   282.03519387008726     
 total        electrons   282.03519387008726     
 total        electrons   282.03519387008726     
 total        electrons   282.03519387008726     
 total        electrons   282.03519387008726     
 total        electrons   282.03519387008726     
 total        electrons   282.03519387008726     
 total        electrons   282.03519387008726     
 total        electrons   282.03519387008726     
 total        electrons   282.03519387008726     
 total        electrons   282.03519387008726     
 total        electrons   282.03519387008726     
 total        electrons   282.03519387008726     
 augmentation electrons   1046.9882554089543     
 soft         electrons   0.0000000000000000     
 augmentation electrons   1046.9882554089543     
 soft         electrons   0.0000000000000000     
 augmentation electrons   1046.9882554089543     
 soft         electrons   0.0000000000000000     
 augmentation electrons   1046.9882554089543     
 soft         electrons   0.0000000000000000     
 augmentation electrons   1046.9882554089543     
 soft         electrons   0.0000000000000000     
 augmentation electrons   1046.9882554089543     
 soft         electrons   0.0000000000000000     
 augmentation electrons   1046.9882554089543     
 soft         electrons   0.0000000000000000     
 augmentation electrons   1046.9882554089543     
 soft         electrons   0.0000000000000000     
 augmentation electrons   1046.9882554089543     
 soft         electrons   0.0000000000000000     
 augmentation electrons   1046.9882554089543     
 soft         electrons   0.0000000000000000     
 augmentation electrons   1046.9882554089543     
 soft         electrons   0.0000000000000000     
 augmentation electrons   1046.9882554089543     
 soft         electrons   0.0000000000000000     
 augmentation electrons   1046.9882554089543     
 soft         electrons   0.0000000000000000     
 augmentation electrons   1046.9882554089543     
 soft         electrons   0.0000000000000000     
 augmentation electrons   1046.9882554089543     
 soft         electrons   0.0000000000000000     
 augmentation electrons   1046.9882554089543     
 soft         electrons   0.0000000000000000     
 augmentation electrons   1046.9882554089543     
 soft         electrons   0.0000000000000000     
 augmentation electrons   1046.9882554089543     
 soft         electrons   0.0000000000000000     
 augmentation electrons   1046.9882554089543     
 soft         electrons   0.0000000000000000     
 augmentation electrons   1046.9882554089543     
 soft         electrons   0.0000000000000000     
 augmentation electrons   1046.9882554089543     
 soft         electrons   0.0000000000000000     
 augmentation electrons   1046.9882554089543     
 soft         electrons   0.0000000000000000     
 augmentation electrons   1046.9882554089543     
 soft         electrons   0.0000000000000000     
 augmentation electrons   1046.9882554089543     
 soft         electrons   0.0000000000000000     
 augmentation electrons   1046.9882554089543     
 soft         electrons   0.0000000000000000     
 augmentation electrons   1046.9882554089543     
 soft         electrons   0.0000000000000000     
 augmentation electrons   1046.9882554089543     
 soft         electrons   0.0000000000000000     
 augmentation electrons   1046.9882554089543     
 soft         electrons   0.0000000000000000     
 augmentation electrons   1046.9882554089543     
 soft         electrons   0.0000000000000000     
 augmentation electrons   1046.9882554089543     
 soft         electrons   0.0000000000000000     
 augmentation electrons   1046.9882554089543     
 soft         electrons   0.0000000000000000     
 augmentation electrons   1046.9882554089543     
 soft         electrons   0.0000000000000000     
 augmentation electrons   1046.9882554089543     
 soft         electrons   0.0000000000000000     
 augmentation electrons   1046.9882554089543     
 soft         electrons   0.0000000000000000     
 augmentation electrons   1046.9882554089543     
 soft         electrons   0.0000000000000000     
 augmentation electrons   1046.9882554089543     
 soft         electrons   0.0000000000000000     
 augmentation electrons   1046.9882554089543     
 soft         electrons   0.0000000000000000     
 augmentation electrons   1046.9882554089543     
 soft         electrons   0.0000000000000000     
 augmentation electrons   1046.9882554089543     
 soft         electrons   0.0000000000000000     
 augmentation electrons   1046.9882554089543     
 soft         electrons   0.0000000000000000     
 augmentation electrons   1046.9882554089543     
 soft         electrons   0.0000000000000000     
 augmentation electrons   1046.9882554089543     
 soft         electrons   0.0000000000000000     
 augmentation electrons   1046.9882554089543     
 soft         electrons   0.0000000000000000     
 augmentation electrons   1046.9882554089543     
 soft         electrons   0.0000000000000000     
 augmentation electrons   1046.9882554089543     
 soft         electrons   0.0000000000000000     
 augmentation electrons   1046.9882554089543     
 soft         electrons   0.0000000000000000     
 augmentation electrons   1046.9882554089543     
 soft         electrons   0.0000000000000000     
 augmentation electrons   1046.9882554089543     
 soft         electrons   0.0000000000000000     
 augmentation electrons   1046.9882554089543     
 soft         electrons   0.0000000000000000     
 augmentation electrons   1046.9882554089543     
 soft         electrons   0.0000000000000000     
 augmentation electrons   1046.9882554089543     
 soft         electrons   0.0000000000000000     
 augmentation electrons   1046.9882554089543     
 soft         electrons   0.0000000000000000     
 augmentation electrons   1046.9882554089543     
 soft         electrons   0.0000000000000000     
 augmentation electrons   1046.9882554089543     
 soft         electrons   0.0000000000000000     
 augmentation electrons   1046.9882554089543     
 soft         electrons   0.0000000000000000     
 augmentation electrons   1046.9882554089543     
 soft         electrons   0.0000000000000000     
 augmentation electrons   1046.9882554089543     
 soft         electrons   0.0000000000000000     
 augmentation electrons   1046.9882554089543     
 soft         electrons   0.0000000000000000     
 augmentation electrons   1046.9882554089543     
 soft         electrons   0.0000000000000000     
 augmentation electrons   1046.9882554089543     
 soft         electrons   0.0000000000000000     
 augmentation electrons   1046.9882554089543     
 soft         electrons   0.0000000000000000     
 augmentation electrons   1046.9882554089543     
 soft         electrons   0.0000000000000000     
 augmentation electrons   1046.9882554089543     
 soft         electrons   0.0000000000000000     
 augmentation electrons   1046.9882554089543     
 soft         electrons   0.0000000000000000     
 augmentation electrons   1046.9882554089543     
 soft         electrons   0.0000000000000000     
 augmentation electrons   1046.9882554089543     
 soft         electrons   0.0000000000000000     
 augmentation electrons   1046.9882554089543     
 soft         electrons   0.0000000000000000     
 augmentation electrons   1046.9882554089543     
 soft         electrons   0.0000000000000000     
 augmentation electrons   1046.9882554089543     
 soft         electrons   0.0000000000000000     
 augmentation electrons   1046.9882554089543     
 soft         electrons   0.0000000000000000     
 augmentation electrons   1046.9882554089543     
 soft         electrons   0.0000000000000000     
 augmentation electrons   1046.9882554089543     
 soft         electrons   0.0000000000000000     
 total        electrons   1046.9882554089543     
 total        electrons   1046.9882554089543     
 total        electrons   1046.9882554089543     
 total        electrons   1046.9882554089543     
 total        electrons   1046.9882554089543     
 total        electrons   1046.9882554089543     
 total        electrons   1046.9882554089543     
 total        electrons   1046.9882554089543     
 total        electrons   1046.9882554089543     
 total        electrons   1046.9882554089543     
 total        electrons   1046.9882554089543     
 total        electrons   1046.9882554089543     
 total        electrons   1046.9882554089543     
 total        electrons   1046.9882554089543     
 total        electrons   1046.9882554089543     
 total        electrons   1046.9882554089543     
 total        electrons   1046.9882554089543     
 total        electrons   1046.9882554089543     
 total        electrons   1046.9882554089543     
 total        electrons   1046.9882554089543     
 total        electrons   1046.9882554089543     
 total        electrons   1046.9882554089543     
 total        electrons   1046.9882554089543     
 total        electrons   1046.9882554089543     
 total        electrons   1046.9882554089543     
 total        electrons   1046.9882554089543     
 total        electrons   1046.9882554089543     
 total        electrons   1046.9882554089543     
 total        electrons   1046.9882554089543     
 total        electrons   1046.9882554089543     
 total        electrons   1046.9882554089543     
 total        electrons   1046.9882554089543     
 total        electrons   1046.9882554089543     
 total        electrons   1046.9882554089543     
 total        electrons   1046.9882554089543     
 total        electrons   1046.9882554089543     
 total        electrons   1046.9882554089543     
 total        electrons   1046.9882554089543     
 total        electrons   1046.9882554089543     
 total        electrons   1046.9882554089543     
 total        electrons   1046.9882554089543     
 total        electrons   1046.9882554089543     
 total        electrons   1046.9882554089543     
 total        electrons   1046.9882554089543     
 total        electrons   1046.9882554089543     
 total        electrons   1046.9882554089543     
 total        electrons   1046.9882554089543     
 total        electrons   1046.9882554089543     
 total        electrons   1046.9882554089543     
 total        electrons   1046.9882554089543     
 total        electrons   1046.9882554089543     
 total        electrons   1046.9882554089543     
 total        electrons   1046.9882554089543     
 total        electrons   1046.9882554089543     
 total        electrons   1046.9882554089543     
 total        electrons   1046.9882554089543     
 total        electrons   1046.9882554089543     
 total        electrons   1046.9882554089543     
 total        electrons   1046.9882554089543     
 total        electrons   1046.9882554089543     
 total        electrons   1046.9882554089543     
 total        electrons   1046.9882554089543     
 total        electrons   1046.9882554089543     
 total        electrons   1046.9882554089543     
 total        electrons   1046.9882554089543     
 total        electrons   1046.9882554089543     
 total        electrons   1046.9882554089543     
 total        electrons   1046.9882554089543     
 total        electrons   1046.9882554089543     
 total        electrons   1046.9882554089543     
 total        electrons   1046.9882554089543     
 total        electrons   1046.9882554089543     
 entering main loop
       N       E                     dE             d eps       ncg     rms          rms(c)
DAV:   1     0.246037062740E+04    0.24604E+04   -0.10255E+05  5520   0.126E+03
DAV:   2    -0.191004790233E+03   -0.26514E+04   -0.24627E+04  6384   0.310E+02
DAV:   3    -0.619020835833E+03   -0.42802E+03   -0.40659E+03  7744   0.144E+02
DAV:   4    -0.655091531886E+03   -0.36071E+02   -0.34436E+02  8920   0.457E+01
DAV:   5    -0.657452651143E+03   -0.23611E+01   -0.22778E+01  9408   0.110E+01    0.146E+02
RMM:   6    -0.607972951062E+03    0.49480E+02   -0.11377E+03  8676   0.881E+01    0.707E+01
RMM:   7    -0.676212889600E+03   -0.68240E+02   -0.34682E+02  7100   0.510E+01    0.544E+01
RMM:   8    -0.607502900929E+03    0.68710E+02   -0.14800E+02  7380   0.285E+01    0.394E+01
RMM:   9    -0.569029176168E+03    0.38474E+02   -0.38102E+01  7977   0.146E+01    0.274E+01
RMM:  10    -0.556789587103E+03    0.12240E+02   -0.24522E+01  6633   0.153E+01    0.190E+01
RMM:  11    -0.556146729609E+03    0.64286E+00   -0.75780E+00  7433   0.642E+00    0.157E+01
RMM:  12    -0.556236708826E+03   -0.89979E-01   -0.17421E+00  8689   0.178E+00    0.145E+01
RMM:  13    -0.556014691807E+03    0.22202E+00   -0.85094E-01  7001   0.270E+00    0.128E+01
RMM:  14    -0.556011692910E+03    0.29989E-02   -0.42954E+00  6725   0.626E+00    0.866E+00
RMM:  15    -0.555305785498E+03    0.70591E+00   -0.11587E+00  6733   0.347E+00    0.447E+00
RMM:  16    -0.555022000667E+03    0.28378E+00   -0.19709E+00  8419   0.236E+00    0.220E+00
RMM:  17    -0.555053511108E+03   -0.31510E-01   -0.45445E-01  8468   0.114E+00    0.182E+00
RMM:  18    -0.555022024791E+03    0.31486E-01   -0.16035E-01  7332   0.994E-01    0.106E+00
RMM:  19    -0.555010237710E+03    0.11787E-01   -0.90218E-02  8392   0.477E-01    0.633E-01
RMM:  20    -0.555004058787E+03    0.61789E-02   -0.12238E-02  7262   0.277E-01    0.292E-01
RMM:  21    -0.555002820895E+03    0.12379E-02   -0.78125E-03  8449   0.140E-01    0.131E-01
RMM:  22    -0.555002401107E+03    0.41979E-03   -0.45482E-03  6778   0.182E-01    0.274E-01
RMM:  23    -0.555001877907E+03    0.52320E-03   -0.26758E-03  6507   0.185E-01    0.127E-01
RMM:  24    -0.555002753966E+03   -0.87606E-03   -0.26476E-03  6312   0.171E-01    0.244E-01
RMM:  25    -0.555002947389E+03   -0.19342E-03   -0.12699E-03  7293   0.770E-02    0.118E-01
RMM:  26    -0.555003121789E+03   -0.17440E-03   -0.79912E-04  6733   0.866E-02    0.383E-02
RMM:  27    -0.555003244805E+03   -0.12302E-03   -0.26688E-04  7509   0.313E-02    0.253E-02
RMM:  28    -0.555003373375E+03   -0.12857E-03   -0.29502E-04  7161   0.411E-02    0.637E-02
RMM:  29    -0.555003420359E+03   -0.46984E-04   -0.96253E-05  7416   0.139E-02    0.393E-02
RMM:  30    -0.555003543861E+03   -0.12350E-03   -0.31318E-05  6516   0.138E-02    0.191E-02
RMM:  31    -0.555003720455E+03   -0.17659E-03   -0.43144E-05  7584   0.113E-02    0.866E-03
RMM:  32    -0.555003792780E+03   -0.72325E-04   -0.96437E-06  5381   0.435E-03    0.524E-03
RMM:  33    -0.555003832008E+03   -0.39229E-04   -0.50453E-06  5157   0.430E-03    0.515E-03
RMM:  34    -0.555003866141E+03   -0.34133E-04   -0.26722E-06  4719   0.346E-03    0.332E-03
RMM:  35    -0.555003880189E+03   -0.14048E-04   -0.14169E-06  4429   0.300E-03    0.341E-03
RMM:  36    -0.555003893910E+03   -0.13721E-04   -0.19743E-06  4438   0.306E-03    0.160E-03
RMM:  37    -0.555003894197E+03   -0.28694E-06   -0.46185E-07  3549   0.160E-03
   1 F= -.55500389E+03 E0= -.55500538E+03  d E =0.444601E-02
 augmentation electrons   31.332637787520817     
 soft         electrons   250.75977996918530     
 augmentation electrons   31.332637787520817     
 soft         electrons   250.75977996918530     
 augmentation electrons   31.332637787520817     
 soft         electrons   250.75977996918530     
 augmentation electrons   31.332637787520817     
 soft         electrons   250.75977996918530     
 augmentation electrons   31.332637787520817     
 soft         electrons   250.75977996918530     
 augmentation electrons   31.332637787520817     
 soft         electrons   250.75977996918530     
 augmentation electrons   31.332637787520817     
 soft         electrons   250.75977996918530     
 augmentation electrons   31.332637787520817     
 soft         electrons   250.75977996918530     
 augmentation electrons   31.332637787520817     
 soft         electrons   250.75977996918530     
 augmentation electrons   31.332637787520817     
 soft         electrons   250.75977996918530     
 augmentation electrons   31.332637787520817     
 soft         electrons   250.75977996918530     
 augmentation electrons   31.332637787520817     
 soft         electrons   250.75977996918530     
 augmentation electrons   31.332637787520817     
 soft         electrons   250.75977996918530     
 augmentation electrons   31.332637787520817     
 soft         electrons   250.75977996918530     
 augmentation electrons   31.332637787520817     
 soft         electrons   250.75977996918530     
 augmentation electrons   31.332637787520817     
 soft         electrons   250.75977996918530     
 augmentation electrons   31.332637787520817     
 soft         electrons   250.75977996918530     
 augmentation electrons   31.332637787520817     
 soft         electrons   250.75977996918530     
 augmentation electrons   31.332637787520817     
 soft         electrons   250.75977996918530     
 augmentation electrons   31.332637787520817     
 soft         electrons   250.75977996918530     
 augmentation electrons   31.332637787520817     
 soft         electrons   250.75977996918530     
 augmentation electrons   31.332637787520817     
 soft         electrons   250.75977996918530     
 augmentation electrons   31.332637787520817     
 soft         electrons   250.75977996918530     
 augmentation electrons   31.332637787520817     
 soft         electrons   250.75977996918530     
 augmentation electrons   31.332637787520817     
 soft         electrons   250.75977996918530     
 augmentation electrons   31.332637787520817     
 soft         electrons   250.75977996918530     
 augmentation electrons   31.332637787520817     
 soft         electrons   250.75977996918530     
 augmentation electrons   31.332637787520817     
 soft         electrons   250.75977996918530     
 augmentation electrons   31.332637787520817     
 soft         electrons   250.75977996918530     
 augmentation electrons   31.332637787520817     
 soft         electrons   250.75977996918530     
 augmentation electrons   31.332637787520817     
 soft         electrons   250.75977996918530     
 augmentation electrons   31.332637787520817     
 soft         electrons   250.75977996918530     
 augmentation electrons   31.332637787520817     
 soft         electrons   250.75977996918530     
 augmentation electrons   31.332637787520817     
 soft         electrons   250.75977996918530     
 augmentation electrons   31.332637787520817     
 soft         electrons   250.75977996918530     
 augmentation electrons   31.332637787520817     
 soft         electrons   250.75977996918530     
 augmentation electrons   31.332637787520817     
 soft         electrons   250.75977996918530     
 augmentation electrons   31.332637787520817     
 soft         electrons   250.75977996918530     
 augmentation electrons   31.332637787520817     
 soft         electrons   250.75977996918530     
 augmentation electrons   31.332637787520817     
 soft         electrons   250.75977996918530     
 augmentation electrons   31.332637787520817     
 soft         electrons   250.75977996918530     
 augmentation electrons   31.332637787520817     
 soft         electrons   250.75977996918530     
 augmentation electrons   31.332637787520817     
 soft         electrons   250.75977996918530     
 augmentation electrons   31.332637787520817     
 soft         electrons   250.75977996918530     
 augmentation electrons   31.332637787520817     
 soft         electrons   250.75977996918530     
 augmentation electrons   31.332637787520817     
 soft         electrons   250.75977996918530     
 augmentation electrons   31.332637787520817     
 soft         electrons   250.75977996918530     
 augmentation electrons   31.332637787520817     
 soft         electrons   250.75977996918530     
 augmentation electrons   31.332637787520817     
 soft         electrons   250.75977996918530     
 augmentation electrons   31.332637787520817     
 soft         electrons   250.75977996918530     
 augmentation electrons   31.332637787520817     
 soft         electrons   250.75977996918530     
 augmentation electrons   31.332637787520817     
 soft         electrons   250.75977996918530     
 augmentation electrons   31.332637787520817     
 soft         electrons   250.75977996918530     
 augmentation electrons   31.332637787520817     
 soft         electrons   250.75977996918530     
 augmentation electrons   31.332637787520817     
 soft         electrons   250.75977996918530     
 augmentation electrons   31.332637787520817     
 soft         electrons   250.75977996918530     
 augmentation electrons   31.332637787520817     
 soft         electrons   250.75977996918530     
 augmentation electrons   31.332637787520817     
 soft         electrons   250.75977996918530     
 augmentation electrons   31.332637787520817     
 soft         electrons   250.75977996918530     
 augmentation electrons   31.332637787520817     
 soft         electrons   250.75977996918530     
 augmentation electrons   31.332637787520817     
 soft         electrons   250.75977996918530     
 augmentation electrons   31.332637787520817     
 soft         electrons   250.75977996918530     
 augmentation electrons   31.332637787520817     
 soft         electrons   250.75977996918530     
 augmentation electrons   31.332637787520817     
 soft         electrons   250.75977996918530     
 augmentation electrons   31.332637787520817     
 soft         electrons   250.75977996918530     
 augmentation electrons   31.332637787520817     
 soft         electrons   250.75977996918530     
 augmentation electrons   31.332637787520817     
 soft         electrons   250.75977996918530     
 augmentation electrons   31.332637787520817     
 soft         electrons   250.75977996918530     
 augmentation electrons   31.332637787520817     
 soft         electrons   250.75977996918530     
 augmentation electrons   31.332637787520817     
 soft         electrons   250.75977996918530     
 augmentation electrons   31.332637787520817     
 soft         electrons   250.75977996918530     
 augmentation electrons   31.332637787520817     
 soft         electrons   250.75977996918530     
 total        electrons   282.09241775670614     
 total        electrons   282.09241775670614     
 total        electrons   282.09241775670614     
 total        electrons   282.09241775670614     
 total        electrons   282.09241775670614     
 total        electrons   282.09241775670614     
 total        electrons   282.09241775670614     
 total        electrons   282.09241775670614     
 total        electrons   282.09241775670614     
 total        electrons   282.09241775670614     
 total        electrons   282.09241775670614     
 total        electrons   282.09241775670614     
 total        electrons   282.09241775670614     
 total        electrons   282.09241775670614     
 total        electrons   282.09241775670614     
 total        electrons   282.09241775670614     
 total        electrons   282.09241775670614     
 total        electrons   282.09241775670614     
 total        electrons   282.09241775670614     
 total        electrons   282.09241775670614     
 total        electrons   282.09241775670614     
 total        electrons   282.09241775670614     
 total        electrons   282.09241775670614     
 total        electrons   282.09241775670614     
 total        electrons   282.09241775670614     
 total        electrons   282.09241775670614     
 total        electrons   282.09241775670614     
 total        electrons   282.09241775670614     
 total        electrons   282.09241775670614     
 total        electrons   282.09241775670614     
 total        electrons   282.09241775670614     
 total        electrons   282.09241775670614     
 total        electrons   282.09241775670614     
 total        electrons   282.09241775670614     
 total        electrons   282.09241775670614     
 total        electrons   282.09241775670614     
 total        electrons   282.09241775670614     
 total        electrons   282.09241775670614     
 total        electrons   282.09241775670614     
 total        electrons   282.09241775670614     
 total        electrons   282.09241775670614     
 total        electrons   282.09241775670614     
 total        electrons   282.09241775670614     
 total        electrons   282.09241775670614     
 total        electrons   282.09241775670614     
 total        electrons   282.09241775670614     
 total        electrons   282.09241775670614     
 total        electrons   282.09241775670614     
 total        electrons   282.09241775670614     
 total        electrons   282.09241775670614     
 total        electrons   282.09241775670614     
 total        electrons   282.09241775670614     
 total        electrons   282.09241775670614     
 total        electrons   282.09241775670614     
 total        electrons   282.09241775670614     
 total        electrons   282.09241775670614     
 total        electrons   282.09241775670614     
 total        electrons   282.09241775670614     
 total        electrons   282.09241775670614     
 total        electrons   282.09241775670614     
 total        electrons   282.09241775670614     
 total        electrons   282.09241775670614     
 total        electrons   282.09241775670614     
 total        electrons   282.09241775670614     
 total        electrons   282.09241775670614     
 total        electrons   282.09241775670614     
 total        electrons   282.09241775670614     
 total        electrons   282.09241775670614     
 total        electrons   282.09241775670614     
 total        electrons   282.09241775670614     
 total        electrons   282.09241775670614     
 total        electrons   282.09241775670614     
Note: The following floating-point exceptions are signalling: IEEE_OVERFLOW_FLAG
Note: The following floating-point exceptions are signalling: IEEE_OVERFLOW_FLAG
Note: The following floating-point exceptions are signalling: IEEE_OVERFLOW_FLAG
Note: The following floating-point exceptions are signalling: IEEE_OVERFLOW_FLAG
Note: The following floating-point exceptions are signalling: IEEE_OVERFLOW_FLAG
Note: The following floating-point exceptions are signalling: IEEE_OVERFLOW_FLAG
Note: The following floating-point exceptions are signalling: IEEE_OVERFLOW_FLAG
Note: The following floating-point exceptions are signalling: IEEE_OVERFLOW_FLAG
Note: The following floating-point exceptions are signalling: IEEE_OVERFLOW_FLAG
Note: The following floating-point exceptions are signalling: IEEE_OVERFLOW_FLAG
Note: The following floating-point exceptions are signalling: IEEE_OVERFLOW_FLAG
Note: The following floating-point exceptions are signalling: IEEE_OVERFLOW_FLAG
Note: The following floating-point exceptions are signalling: IEEE_OVERFLOW_FLAG
Note: The following floating-point exceptions are signalling: IEEE_OVERFLOW_FLAG
Note: The following floating-point exceptions are signalling: IEEE_OVERFLOW_FLAG
Note: The following floating-point exceptions are signalling: IEEE_OVERFLOW_FLAG
Note: The following floating-point exceptions are signalling: IEEE_OVERFLOW_FLAG
Note: The following floating-point exceptions are signalling: IEEE_OVERFLOW_FLAG
Note: The following floating-point exceptions are signalling: IEEE_OVERFLOW_FLAG
Note: The following floating-point exceptions are signalling: IEEE_OVERFLOW_FLAG
Note: The following floating-point exceptions are signalling: IEEE_OVERFLOW_FLAG
Note: The following floating-point exceptions are signalling: IEEE_OVERFLOW_FLAG
Note: The following floating-point exceptions are signalling: IEEE_OVERFLOW_FLAG
Note: The following floating-point exceptions are signalling: IEEE_OVERFLOW_FLAG
Note: The following floating-point exceptions are signalling: IEEE_OVERFLOW_FLAG
Note: The following floating-point exceptions are signalling: IEEE_OVERFLOW_FLAG
Note: The following floating-point exceptions are signalling: IEEE_OVERFLOW_FLAG
Note: The following floating-point exceptions are signalling: IEEE_OVERFLOW_FLAG
Note: The following floating-point exceptions are signalling: IEEE_OVERFLOW_FLAG
Note: The following floating-point exceptions are signalling: IEEE_OVERFLOW_FLAG
Note: The following floating-point exceptions are signalling: IEEE_OVERFLOW_FLAG
Note: The following floating-point exceptions are signalling: IEEE_OVERFLOW_FLAG
Note: The following floating-point exceptions are signalling: IEEE_OVERFLOW_FLAG
Note: The following floating-point exceptions are signalling: IEEE_OVERFLOW_FLAG
Note: The following floating-point exceptions are signalling: IEEE_OVERFLOW_FLAG
Note: The following floating-point exceptions are signalling: IEEE_OVERFLOW_FLAG
Note: The following floating-point exceptions are signalling: IEEE_OVERFLOW_FLAG
Note: The following floating-point exceptions are signalling: IEEE_OVERFLOW_FLAG
Note: The following floating-point exceptions are signalling: IEEE_OVERFLOW_FLAG
Note: The following floating-point exceptions are signalling: IEEE_OVERFLOW_FLAG
Note: The following floating-point exceptions are signalling: IEEE_OVERFLOW_FLAG
Note: The following floating-point exceptions are signalling: IEEE_OVERFLOW_FLAG
Note: The following floating-point exceptions are signalling: IEEE_OVERFLOW_FLAG
Note: The following floating-point exceptions are signalling: IEEE_OVERFLOW_FLAG
Note: The following floating-point exceptions are signalling: IEEE_OVERFLOW_FLAG
Note: The following floating-point exceptions are signalling: IEEE_OVERFLOW_FLAG
Note: The following floating-point exceptions are signalling: IEEE_OVERFLOW_FLAG
Note: The following floating-point exceptions are signalling: IEEE_OVERFLOW_FLAG
Note: The following floating-point exceptions are signalling: IEEE_OVERFLOW_FLAG
Note: The following floating-point exceptions are signalling: IEEE_OVERFLOW_FLAG
Note: The following floating-point exceptions are signalling: IEEE_OVERFLOW_FLAG
Note: The following floating-point exceptions are signalling: IEEE_OVERFLOW_FLAG
Note: The following floating-point exceptions are signalling: IEEE_OVERFLOW_FLAG
Note: The following floating-point exceptions are signalling: IEEE_OVERFLOW_FLAG
Note: The following floating-point exceptions are signalling: IEEE_OVERFLOW_FLAG
Note: The following floating-point exceptions are signalling: IEEE_OVERFLOW_FLAG
Note: The following floating-point exceptions are signalling: IEEE_OVERFLOW_FLAG
Note: The following floating-point exceptions are signalling: IEEE_OVERFLOW_FLAG
Note: The following floating-point exceptions are signalling: IEEE_OVERFLOW_FLAG
Note: The following floating-point exceptions are signalling: IEEE_OVERFLOW_FLAG
Note: The following floating-point exceptions are signalling: IEEE_OVERFLOW_FLAG
Note: The following floating-point exceptions are signalling: IEEE_OVERFLOW_FLAG
Note: The following floating-point exceptions are signalling: IEEE_OVERFLOW_FLAG
Note: The following floating-point exceptions are signalling: IEEE_OVERFLOW_FLAG
Note: The following floating-point exceptions are signalling: IEEE_OVERFLOW_FLAG
Note: The following floating-point exceptions are signalling: IEEE_OVERFLOW_FLAG
Note: The following floating-point exceptions are signalling: IEEE_OVERFLOW_FLAG
Note: The following floating-point exceptions are signalling: IEEE_OVERFLOW_FLAG
Note: The following floating-point exceptions are signalling: IEEE_OVERFLOW_FLAG
Note: The following floating-point exceptions are signalling: IEEE_OVERFLOW_FLAG
Note: The following floating-point exceptions are signalling: IEEE_OVERFLOW_FLAG
Note: The following floating-point exceptions are signalling: IEEE_OVERFLOW_FLAG
