    3    3    1    1
  0.8604740E+01  0.3002604E-09  0.3002604E-09  0.3306224E-09  0.5000000E-15
   1.0000000000000000E-004
  CAR 
 Name                                    
     12   2457     10

  0.3742002E-15  0.3742002E-15  0.3742002E-15  0.2035416E-03
    1       -5.674147   1.000000
    2        4.220171   1.000000
    3        4.629612   1.000000
    4        4.629619   1.000000
    5        5.501578   1.000000
    6        9.331584   0.159124
    7        9.331590   0.014933
    8       11.556139   0.000000
    9       11.556160   0.000000
   10       14.084330   0.000000

  0.5882353E-01  0.3706497E-15  0.3742002E-15  0.4070832E-03
    1       -5.604822   1.000000
    2        4.276966   1.000000
    3        4.458437   1.000000
    4        4.660004   1.000000
    5        5.353365   1.000000
    6        9.299102   0.587606
    7        9.544186  -0.009852
    8       11.213605   0.000000
    9       11.281654   0.000000
   10       14.344566   0.000000

  0.1176471E+00  0.3767996E-15  0.3742002E-15  0.4070832E-03
    1       -5.399239   1.000000
    2        3.980405   1.000000
    3        4.438515   1.000000
    4        4.739590   1.000000
    5        4.995917   1.000000
    6        9.207487   0.994132
    7       10.076646   0.000000
    8       10.526448   0.000000
    9       10.788590   0.000000
   10       14.777875   0.000000

  0.1764706E+00  0.3607731E-15  0.3742002E-15  0.4070832E-03
    1       -5.064285   1.000000
    2        3.307830   1.000000
    3        4.569589   1.000000
    4        4.625539   1.000000
    5        4.836940   1.000000
    6        9.072621   1.000000
    7        9.896088   0.000000
    8       10.389749   0.000000
    9       10.724374   0.000000
   10       15.096236   0.000000

  0.2352941E+00  0.3655633E-15  0.3742002E-15  0.4070832E-03
    1       -4.610475   1.000000
    2        2.520844   1.000000
    3        4.161376   1.000000
    4        4.734097   1.000000
    5        4.912402   1.000000
    6        8.915992   1.000000
    7        9.568608   0.000000
    8       10.188863   0.000000
    9       11.264503   0.000000
   10       15.290121   0.000000

  0.2941176E+00  0.3668569E-15  0.3742002E-15  0.4070832E-03
    1       -4.050993   1.000000
    2        1.675141   1.000000
    3        3.813134   1.000000
    4        4.675360   1.000000
    5        4.939575   1.000000
    6        8.760002   1.000000
    7        9.680785   0.000000
    8       10.197582   0.000000
    9       11.493827   0.000000
   10       15.391473   0.000000

  0.3529412E+00  0.3820644E-15  0.3742002E-15  0.4070832E-03
    1       -3.401468   1.000000
    2        0.803772   1.000000
    3        3.543964   1.000000
    4        4.486151   1.000000
    5        4.922055   1.000000
    6        8.624725   1.000000
    7       10.184536   0.000000
    8       10.359360   0.000000
    9       11.422089   0.000000
   10       15.438190   0.000000

  0.4117647E+00  0.3552411E-15  0.3742002E-15  0.4070832E-03
    1       -2.683114   1.000000
    2       -0.065663   1.000000
    3        3.362176   1.000000
    4        4.284144   1.000000
    5        4.886084   1.000000
    6        8.525776   1.000000
    7       10.569258   0.000000
    8       10.868244   0.000000
    9       11.249950   0.000000
   10       15.440522   0.000000

  0.4705882E+00  0.3565347E-15  0.3742002E-15  0.4070832E-03
    1       -1.959928   1.000000
    2       -0.865466   1.000000
    3        3.270810   1.000000
    4        4.162160   1.000000
    5        4.859906   1.000000
    6        8.473668   1.000000
    7       10.712476   0.000000
    8       11.132016   0.000000
    9       11.400118   0.000000
   10       15.413238   0.000000

  0.3742002E-15  0.5882353E-01  0.3742002E-15  0.4070832E-03
    1       -5.604822   1.000000
    2        4.276966   1.000000
    3        4.458436   1.000000
    4        4.660005   1.000000
    5        5.353365   1.000000
    6        9.299102   0.587609
    7        9.544186  -0.009852
    8       11.213604   0.000000
    9       11.281655   0.000000
   10       14.393628   0.000000

  0.5882353E-01  0.5882353E-01  0.3742002E-15  0.4070832E-03
    1       -5.467348   1.000000
    2        4.144891   1.000000
    3        4.374310   1.000000
    4        4.715783   1.000000
    5        5.104307   1.000000
    6        9.222719   0.979094
    7        9.928492   0.000000
    8       10.748414   0.000000
    9       10.885205   0.000000
   10       14.739214   0.000000

  0.1176471E+00  0.5882353E-01  0.3742002E-15  0.4070832E-03
    1       -5.196990   1.000000
    2        3.595253   1.000000
    3        4.482320   1.000000
    4        4.726690   1.000000
    5        4.846240   1.000000
    6        9.070205   1.000000
    7       10.111492   0.000000
    8       10.487692   0.000000
    9       10.554444   0.000000
   10       15.147211   0.000000

  0.1764706E+00  0.5882353E-01  0.3742002E-15  0.4070832E-03
    1       -4.802287   1.000000
    2        2.891749   1.000000
    3        4.329558   1.000000
    4        4.480395   1.000000
    5        5.064185   1.000000
    6        8.866698   1.000000
    7        9.581032  -0.006358
    8       10.291841   0.000000
    9       11.220434   0.000000
   10       15.395960   0.000000

  0.2352941E+00  0.5882353E-01  0.3742002E-15  0.4070832E-03
    1       -4.294909   1.000000
    2        2.098978   1.000000
    3        3.972637   1.000000
    4        4.350145   1.000000
    5        5.263460   1.000000
    6        8.639881   1.000000
    7        9.355593   0.058087
    8       10.340510   0.000000
    9       11.700922   0.000000
   10       15.513894   0.000000

  0.2941176E+00  0.5882353E-01  0.3742002E-15  0.4070832E-03
    1       -3.688931   1.000000
    2        1.256945   1.000000
    3        3.683754   1.000000
    4        4.137311   1.000000
    5        5.350092   1.000000
    6        8.419268   1.000000
    7        9.507947  -0.012176
    8       10.594857   0.000000
    9       11.843848   0.000000
   10       15.574173   0.000000

  0.3529412E+00  0.5882353E-01  0.3742002E-15  0.4070832E-03
    1       -3.001542   1.000000
    2        0.394008   1.000000
    3        3.474476   1.000000
    4        3.915072   1.000000
    5        5.337405   1.000000
    6        8.234225   1.000000
    7        9.930068  -0.014646
    8       10.952146   0.000000
    9       11.759202   0.000000
   10       15.602852   0.000000

  0.4117647E+00  0.5882353E-01  0.3742002E-15  0.4070832E-03
    1       -2.262144   1.000000
    2       -0.453926   1.000000
    3        3.348639   1.000000
    4        3.752968   1.000000
    5        5.295539   1.000000
    6        8.110822   1.000000
    7       10.373644   0.000000
    8       11.274199   0.000000
    9       11.641353   0.000000
   10       15.633405   0.000000

  0.4705882E+00  0.5882353E-01  0.3742002E-15  0.4070832E-03
    1       -1.704524   1.000000
    2       -1.048355   1.000000
    3        3.306700   1.000000
    4        3.694269   1.000000
    5        5.276066   1.000000
    6        8.067456   1.000000
    7       10.563839   0.000000
    8       11.409549   0.000000
    9       11.592933   0.000000
   10       15.658480   0.000000

 -0.4705882E+00  0.5882353E-01  0.3742002E-15  0.4070832E-03
    1       -2.262144   1.000000
    2       -0.453925   1.000000
    3        3.348638   1.000000
    4        3.752966   1.000000
    5        5.295540   1.000000
    6        8.110823   1.000000
    7       10.373647   0.000000
    8       11.274196   0.000000
    9       11.641353   0.000000
   10       15.633397   0.000000

 -0.4117647E+00  0.5882353E-01  0.3742002E-15  0.4070832E-03
    1       -3.001542   1.000000
    2        0.394009   1.000000
    3        3.474475   1.000000
    4        3.915070   1.000000
    5        5.337405   1.000000
    6        8.234226   1.000000
    7        9.930073  -0.017085
    8       10.952142   0.000000
    9       11.759201   0.000000
   10       15.603683   0.000000

 -0.3529412E+00  0.5882353E-01  0.3742002E-15  0.4070832E-03
    1       -3.688931   1.000000
    2        1.256947   1.000000
    3        3.683752   1.000000
    4        4.137307   1.000000
    5        5.350093   1.000000
    6        8.419271   1.000000
    7        9.507953  -0.008226
    8       10.594852   0.000000
    9       11.843848   0.000000
   10       15.597311   0.000000

 -0.2941176E+00  0.5882353E-01  0.3742002E-15  0.4070832E-03
    1       -4.294909   1.000000
    2        2.098981   1.000000
    3        3.972636   1.000000
    4        4.350140   1.000000
    5        5.263461   1.000000
    6        8.639884   1.000000
    7        9.355599   0.054593
    8       10.340504   0.000000
    9       11.700921   0.000000
   10       15.516503   0.000000

 -0.2352941E+00  0.5882353E-01  0.3742002E-15  0.4070832E-03
    1       -4.802287   1.000000
    2        2.891753   1.000000
    3        4.329557   1.000000
    4        4.480390   1.000000
    5        5.064185   1.000000
    6        8.866702   1.000000
    7        9.581038  -0.005533
    8       10.291835   0.000000
    9       11.220432   0.000000
   10       15.387396   0.000000

 -0.1764706E+00  0.5882353E-01  0.3742002E-15  0.4070832E-03
    1       -5.196990   1.000000
    2        3.595258   1.000000
    3        4.482317   1.000000
    4        4.726688   1.000000
    5        4.846237   1.000000
    6        9.070209   1.000000
    7       10.111497   0.000000
    8       10.487685   0.000000
    9       10.554442   0.000000
   10       15.149864   0.000000

 -0.1176471E+00  0.5882353E-01  0.3742002E-15  0.4070832E-03
    1       -5.467348   1.000000
    2        4.144898   1.000000
    3        4.374310   1.000000
    4        4.715777   1.000000
    5        5.104305   1.000000
    6        9.222724   0.981360
    7        9.928489   0.000000
    8       10.748419   0.000000
    9       10.885197   0.000000
   10       14.737680   0.000000

 -0.5882353E-01  0.5882353E-01  0.3742002E-15  0.4070832E-03
    1       -5.604822   1.000000
    2        4.276966   1.000000
    3        4.458442   1.000000
    4        4.659999   1.000000
    5        5.353365   1.000000
    6        9.299106   0.591844
    7        9.544182  -0.011343
    8       11.213606   0.000000
    9       11.281651   0.000000
   10       14.348692   0.000000

  0.3742002E-15  0.1176471E+00  0.3742002E-15  0.4070832E-03
    1       -5.399239   1.000000
    2        3.980404   1.000000
    3        4.438515   1.000000
    4        4.739591   1.000000
    5        4.995917   1.000000
    6        9.207487   0.994133
    7       10.076646   0.000000
    8       10.526447   0.000000
    9       10.788591   0.000000
   10       14.777999   0.000000

  0.5882353E-01  0.1176471E+00  0.3742002E-15  0.4070832E-03
    1       -5.196990   1.000000
    2        3.595252   1.000000
    3        4.482320   1.000000
    4        4.726690   1.000000
    5        4.846240   1.000000
    6        9.070205   1.000000
    7       10.111492   0.000000
    8       10.487692   0.000000
    9       10.554444   0.000000
   10       15.146298   0.000000

  0.1176471E+00  0.1176471E+00  0.3742002E-15  0.4070832E-03
    1       -4.866633   1.000000
    2        3.062037   1.000000
    3        4.337230   1.000000
    4        4.398863   1.000000
    5        5.119580   1.000000
    6        8.794787   1.000000
    7        9.590248  -0.018091
    8       10.340300   0.000000
    9       11.260304   0.000000
   10       15.624718   0.000000

  0.1764706E+00  0.1176471E+00  0.3742002E-15  0.4070832E-03
    1       -4.417567   1.000000
    2        2.417360   1.000000
    3        4.042568   1.000000
    4        4.086436   1.000000
    5        5.475215   1.000000
    6        8.438511   1.000000
    7        9.130990   0.522243
    8       10.470682   0.000000
    9       12.000738   0.000000
   10       15.667735   0.000000

  0.2352941E+00  0.1176471E+00  0.3742002E-15  0.4070832E-03
    1       -3.861875   1.000000
    2        1.684878   1.000000
    3        3.686783   1.000000
    4        3.827477   1.000000
    5        5.786299   1.000000
    6        8.059029   1.000000
    7        8.934270   1.051063
    8       10.788107   0.000000
    9       12.528074   0.000000
   10       15.384494   0.000000

  0.2941176E+00  0.1176471E+00  0.3742002E-15  0.4070832E-03
    1       -3.214142   1.000000
    2        0.886501   1.000000
    3        3.355697   1.000000
    4        3.636397   1.000000
    5        5.941738   1.000000
    6        7.711707   1.000000
    7        9.112809   0.659524
    8       11.127789   0.000000
    9       12.692786   0.000000
   10       15.909873   0.000000

  0.3529412E+00  0.1176471E+00  0.3742002E-15  0.4070832E-03
    1       -2.493652   1.000000
    2        0.053321   1.000000
    3        3.109611   1.000000
    4        3.514101   1.000000
    5        5.956931   1.000000
    6        7.446804   1.000000
    7        9.584247   0.011623
    8       11.296719   0.000000
    9       12.658305   0.000000
   10       16.111416   0.000000

  0.4117647E+00  0.1176471E+00  0.3742002E-15  0.4070832E-03
    1       -1.751240   1.000000
    2       -0.749983   1.000000
    3        2.980308   1.000000
    4        3.455355   1.000000
    5        5.932773   1.000000
    6        7.303443   1.000000
    7       10.063941   0.000000
    8       11.228753   0.000000
    9       12.606681   0.000000
   10       16.280731   0.000000

  0.4705882E+00  0.1176471E+00  0.3742002E-15  0.4070832E-03
    1       -1.751240   1.000000
    2       -0.749982   1.000000
    3        2.980307   1.000000
    4        3.455355   1.000000
    5        5.932773   1.000000
    6        7.303444   1.000000
    7       10.063943   0.000000
    8       11.228751   0.000000
    9       12.606681   0.000000
   10       16.284138   0.000000

 -0.4705882E+00  0.1176471E+00  0.3742002E-15  0.4070832E-03
    1       -2.493652   1.000000
    2        0.053323   1.000000
    3        3.109608   1.000000
    4        3.514099   1.000000
    5        5.956932   1.000000
    6        7.446807   1.000000
    7        9.584252   0.019960
    8       11.296716   0.000000
    9       12.658304   0.000000
   10       16.111935   0.000000

 -0.4117647E+00  0.1176471E+00  0.3742002E-15  0.4070832E-03
    1       -3.214142   1.000000
    2        0.886505   1.000000
    3        3.355691   1.000000
    4        3.636395   1.000000
    5        5.941738   1.000000
    6        7.711710   1.000000
    7        9.112814   0.648145
    8       11.127784   0.000000
    9       12.692795   0.000000
   10       15.877809   0.000000

 -0.3529412E+00  0.1176471E+00  0.3742002E-15  0.4070832E-03
    1       -3.861875   1.000000
    2        1.684883   1.000000
    3        3.686776   1.000000
    4        3.827474   1.000000
    5        5.786299   1.000000
    6        8.059033   1.000000
    7        8.934276   1.031447
    8       10.788101   0.000000
    9       12.528073   0.000000
   10       15.383007   0.000000

 -0.2941176E+00  0.1176471E+00  0.3742002E-15  0.4070832E-03
    1       -4.417566   1.000000
    2        2.417367   1.000000
    3        4.042560   1.000000
    4        4.086433   1.000000
    5        5.475215   1.000000
    6        8.438516   1.000000
    7        9.130996   0.550010
    8       10.470675   0.000000
    9       12.000736   0.000000
   10       15.378194   0.000000

 -0.2352941E+00  0.1176471E+00  0.3742002E-15  0.4070832E-03
    1       -4.866633   1.000000
    2        3.062044   1.000000
    3        4.337223   1.000000
    4        4.398860   1.000000
    5        5.119579   1.000000
    6        8.794792   1.000000
    7        9.590254  -0.013483
    8       10.340292   0.000000
    9       11.260303   0.000000
   10       15.610697   0.000000

 -0.1764706E+00  0.1176471E+00  0.3742002E-15  0.4070832E-03
    1       -5.196990   1.000000
    2        3.595259   1.000000
    3        4.482317   1.000000
    4        4.726687   1.000000
    5        4.846235   1.000000
    6        9.070210   1.000000
    7       10.111495   0.000000
    8       10.487686   0.000000
    9       10.554442   0.000000
   10       15.146123   0.000000

 -0.1176471E+00  0.1176471E+00  0.3742002E-15  0.4070832E-03
    1       -5.399238   1.000000
    2        3.980409   1.000000
    3        4.438516   1.000000
    4        4.739586   1.000000
    5        4.995915   1.000000
    6        9.207491   0.997069
    7       10.076644   0.000000
    8       10.526447   0.000000
    9       10.788588   0.000000
   10       14.779107   0.000000

 -0.5882353E-01  0.1176471E+00  0.3742002E-15  0.4070832E-03
    1       -5.467348   1.000000
    2        4.144896   1.000000
    3        4.374310   1.000000
    4        4.715778   1.000000
    5        5.104306   1.000000
    6        9.222723   0.981360
    7        9.928489   0.000000
    8       10.748418   0.000000
    9       10.885198   0.000000
   10       14.737673   0.000000

  0.3742002E-15  0.1764706E+00  0.3742002E-15  0.4070832E-03
    1       -5.064285   1.000000
    2        3.307829   1.000000
    3        4.569589   1.000000
    4        4.625539   1.000000
    5        4.836941   1.000000
    6        9.072620   1.000000
    7        9.896088   0.000000
    8       10.389749   0.000000
    9       10.724373   0.000000
   10       15.096225   0.000000

  0.5882353E-01  0.1764706E+00  0.3742002E-15  0.4070832E-03
    1       -4.802287   1.000000
    2        2.891748   1.000000
    3        4.329559   1.000000
    4        4.480395   1.000000
    5        5.064186   1.000000
    6        8.866698   1.000000
    7        9.581032  -0.006358
    8       10.291841   0.000000
    9       11.220433   0.000000
   10       15.387495   0.000000

  0.1176471E+00  0.1764706E+00  0.3742002E-15  0.4070832E-03
    1       -4.417567   1.000000
    2        2.417360   1.000000
    3        4.042569   1.000000
    4        4.086436   1.000000
    5        5.475215   1.000000
    6        8.438511   1.000000
    7        9.130990   0.522242
    8       10.470682   0.000000
    9       12.000736   0.000000
   10       15.415299   0.000000

  0.1764706E+00  0.1764706E+00  0.3742002E-15  0.4070832E-03
    1       -3.919571   1.000000
    2        1.893836   1.000000
    3        3.469993   1.000000
    4        3.890299   1.000000
    5        5.961911   1.000000
    6        7.903721   1.000000
    7        8.706806   1.114983
    8       10.855049   0.000000
    9       12.882520   0.000000
   10       15.138127   0.000000

  0.2352941E+00  0.1764706E+00  0.3742002E-15  0.4070832E-03
    1       -3.320350   1.000000
    2        1.290889   1.000000
    3        2.912306   1.000000
    4        3.762150   1.000000
    5        6.407634   1.000000
    6        7.363884   1.000000
    7        8.512647   1.017667
    8       11.223937   0.000000
    9       13.565285   0.000000
   10       15.250447   0.000000

  0.2941176E+00  0.1764706E+00  0.3742002E-15  0.4070832E-03
    1       -2.635057   1.000000
    2        0.580283   1.000000
    3        2.490430   1.000000
    4        3.699878   1.000000
    5        6.633462   1.000000
    6        6.900534   1.000000
    7        8.735638   1.069158
    8       11.339612   0.000000
    9       13.775530   0.000000
   10       15.887567   0.000000

  0.3529412E+00  0.1764706E+00  0.3742002E-15  0.4070832E-03
    1       -1.885969   1.000000
    2       -0.207239   1.000000
    3        2.243911   1.000000
    4        3.682872   1.000000
    5        6.584129   1.000000
    6        6.657138   1.000000
    7        9.280928   0.426785
    8       11.108185   0.000000
    9       13.768763   0.000000
   10       16.604947   0.000000

  0.4117647E+00  0.1764706E+00  0.3742002E-15  0.4070832E-03
    1       -1.245924   1.000000
    2       -0.865057   1.000000
    3        2.164071   1.000000
    4        3.682020   1.000000
    5        6.470859   1.000000
    6        6.644365   1.000000
    7        9.653260  -0.079966
    8       10.850960   0.000000
    9       13.752460   0.000000
   10       16.922783   0.000000

  0.4705882E+00  0.1764706E+00  0.3742002E-15  0.4070832E-03
    1       -1.885969   1.000000
    2       -0.207236   1.000000
    3        2.243907   1.000000
    4        3.682870   1.000000
    5        6.584131   1.000000
    6        6.657138   1.000000
    7        9.280932   0.422898
    8       11.108183   0.000000
    9       13.768762   0.000000
   10       16.605897   0.000000

 -0.4705882E+00  0.1764706E+00  0.3742002E-15  0.4070832E-03
    1       -2.635056   1.000000
    2        0.580289   1.000000
    3        2.490423   1.000000
    4        3.699875   1.000000
    5        6.633462   1.000000
    6        6.900539   1.000000
    7        8.735642   1.070671
    8       11.339608   0.000000
    9       13.775529   0.000000
   10       15.884066   0.000000

 -0.4117647E+00  0.1764706E+00  0.3742002E-15  0.4070832E-03
    1       -3.320350   1.000000
    2        1.290897   1.000000
    3        2.912296   1.000000
    4        3.762145   1.000000
    5        6.407634   1.000000
    6        7.363889   1.000000
    7        8.512652   1.024701
    8       11.223933   0.000000
    9       13.565261   0.000000
   10       15.250713   0.000000

 -0.3529412E+00  0.1764706E+00  0.3742002E-15  0.4070832E-03
    1       -3.919570   1.000000
    2        1.893844   1.000000
    3        3.469983   1.000000
    4        3.890294   1.000000
    5        5.961910   1.000000
    6        7.903727   1.000000
    7        8.706811   1.084429
    8       10.855043   0.000000
    9       12.882521   0.000000
   10       15.137770   0.000000

 -0.2941176E+00  0.1764706E+00  0.3742002E-15  0.4070832E-03
    1       -4.417566   1.000000
    2        2.417368   1.000000
    3        4.042560   1.000000
    4        4.086432   1.000000
    5        5.475214   1.000000
    6        8.438517   1.000000
    7        9.130994   0.538921
    8       10.470675   0.000000
    9       12.000738   0.000000
   10       15.381401   0.000000

 -0.2352941E+00  0.1764706E+00  0.3742002E-15  0.4070832E-03
    1       -4.802286   1.000000
    2        2.891754   1.000000
    3        4.329555   1.000000
    4        4.480390   1.000000
    5        5.064183   1.000000
    6        8.866704   1.000000
    7        9.581034  -0.005917
    8       10.291836   0.000000
    9       11.220434   0.000000
   10       15.426803   0.000000

 -0.1764706E+00  0.1764706E+00  0.3742002E-15  0.4070832E-03
    1       -5.064285   1.000000
    2        3.307834   1.000000
    3        4.569586   1.000000
    4        4.625540   1.000000
    5        4.836936   1.000000
    6        9.072625   1.000000
    7        9.896086   0.000000
    8       10.389748   0.000000
    9       10.724374   0.000000
   10       15.096263   0.000000

 -0.1176471E+00  0.1764706E+00  0.3742002E-15  0.4070832E-03
    1       -5.196990   1.000000
    2        3.595258   1.000000
    3        4.482317   1.000000
    4        4.726688   1.000000
    5        4.846236   1.000000
    6        9.070210   1.000000
    7       10.111494   0.000000
    8       10.487687   0.000000
    9       10.554442   0.000000
   10       15.145882   0.000000

 -0.5882353E-01  0.1764706E+00  0.3742002E-15  0.4070832E-03
    1       -5.196990   1.000000
    2        3.595256   1.000000
    3        4.482317   1.000000
    4        4.726689   1.000000
    5        4.846238   1.000000
    6        9.070209   1.000000
    7       10.111497   0.000000
    8       10.487686   0.000000
    9       10.554442   0.000000
   10       15.173839   0.000000

  0.3742002E-15  0.2352941E+00  0.3742002E-15  0.4070832E-03
    1       -4.610475   1.000000
    2        2.520844   1.000000
    3        4.161377   1.000000
    4        4.734097   1.000000
    5        4.912404   1.000000
    6        8.915992   1.000000
    7        9.568608   0.000000
    8       10.188863   0.000000
    9       11.264502   0.000000
   10       15.286974   0.000000

  0.5882353E-01  0.2352941E+00  0.3742002E-15  0.4070832E-03
    1       -4.294909   1.000000
    2        2.098978   1.000000
    3        3.972638   1.000000
    4        4.350145   1.000000
    5        5.263461   1.000000
    6        8.639881   1.000000
    7        9.355594   0.058087
    8       10.340509   0.000000
    9       11.700920   0.000000
   10       15.513950   0.000000

  0.1176471E+00  0.2352941E+00  0.3742002E-15  0.4070832E-03
    1       -3.861875   1.000000
    2        1.684878   1.000000
    3        3.686784   1.000000
    4        3.827477   1.000000
    5        5.786299   1.000000
    6        8.059028   1.000000
    7        8.934270   1.051063
    8       10.788107   0.000000
    9       12.528073   0.000000
   10       15.402668   0.000000

  0.1764706E+00  0.2352941E+00  0.3742002E-15  0.4070832E-03
    1       -3.320351   1.000000
    2        1.290889   1.000000
    3        2.912306   1.000000
    4        3.762150   1.000000
    5        6.407634   1.000000
    6        7.363884   1.000000
    7        8.512647   1.017667
    8       11.223937   0.000000
    9       13.565262   0.000000
   10       15.249897   0.000000

  0.2352941E+00  0.2352941E+00  0.3742002E-15  0.4070832E-03
    1       -2.682408   1.000000
    2        0.879166   1.000000
    3        2.159609   1.000000
    4        3.787606   1.000000
    5        6.686011   1.000000
    6        7.057131   1.000000
    7        8.241733   1.000000
    8       11.356622   0.000000
    9       14.599721   0.000000
   10       15.219689   0.000000

  0.2941176E+00  0.2352941E+00  0.3742002E-15  0.4070832E-03
    1       -1.964370   1.000000
    2        0.335990   1.000000
    3        1.610272   1.000000
    4        3.885446   1.000000
    5        6.120377   1.000000
    6        7.417144   1.000000
    7        8.438587   1.023665
    8       11.058415   0.000000
    9       14.902536   0.000000
   10       15.880508   0.000000

  0.3529412E+00  0.2352941E+00  0.3742002E-15  0.4070832E-03
    1       -1.193207   1.000000
    2       -0.382474   1.000000
    3        1.363978   1.000000
    4        3.987937   1.000000
    5        5.775058   1.000000
    6        7.423525   1.000000
    7        9.033065   0.952303
    8       10.533573   0.000000
    9       14.884474   0.000000
   10       16.559703   0.000000

  0.4117647E+00  0.2352941E+00  0.3742002E-15  0.4070832E-03
    1       -1.193208   1.000000
    2       -0.382471   1.000000
    3        1.363975   1.000000
    4        3.987935   1.000000
    5        5.775060   1.000000
    6        7.423525   1.000000
    7        9.033067   0.950682
    8       10.533572   0.000000
    9       14.884473   0.000000
   10       16.559051   0.000000

  0.4705882E+00  0.2352941E+00  0.3742002E-15  0.4070832E-03
    1       -1.964369   1.000000
    2        0.335997   1.000000
    3        1.610263   1.000000
    4        3.885442   1.000000
    5        6.120382   1.000000
    6        7.417143   1.000000
    7        8.438591   1.022267
    8       11.058413   0.000000
    9       14.902529   0.000000
   10       15.880537   0.000000

 -0.4705882E+00  0.2352941E+00  0.3742002E-15  0.4070832E-03
    1       -2.682407   1.000000
    2        0.879176   1.000000
    3        2.159597   1.000000
    4        3.787601   1.000000
    5        6.686017   1.000000
    6        7.057131   1.000000
    7        8.241738   1.000000
    8       11.356619   0.000000
    9       14.599733   0.000000
   10       15.219621   0.000000

 -0.4117647E+00  0.2352941E+00  0.3742002E-15  0.4070832E-03
    1       -3.320349   1.000000
    2        1.290897   1.000000
    3        2.912295   1.000000
    4        3.762144   1.000000
    5        6.407634   1.000000
    6        7.363890   1.000000
    7        8.512651   1.006932
    8       11.223933   0.000000
    9       13.565265   0.000000
   10       15.250416   0.000000

 -0.3529412E+00  0.2352941E+00  0.3742002E-15  0.4070832E-03
    1       -3.861874   1.000000
    2        1.684884   1.000000
    3        3.686775   1.000000
    4        3.827472   1.000000
    5        5.786299   1.000000
    6        8.059035   1.000000
    7        8.934273   1.024770
    8       10.788102   0.000000
    9       12.528077   0.000000
   10       15.404844   0.000000

 -0.2941176E+00  0.2352941E+00  0.3742002E-15  0.4070832E-03
    1       -4.294908   1.000000
    2        2.098983   1.000000
    3        3.972633   1.000000
    4        4.350141   1.000000
    5        5.263460   1.000000
    6        8.639886   1.000000
    7        9.355595   0.068254
    8       10.340505   0.000000
    9       11.700924   0.000000
   10       15.519462   0.000000

 -0.2352941E+00  0.2352941E+00  0.3742002E-15  0.4070832E-03
    1       -4.610474   1.000000
    2        2.520847   1.000000
    3        4.161373   1.000000
    4        4.734098   1.000000
    5        4.912398   1.000000
    6        8.915996   1.000000
    7        9.568605   0.000000
    8       10.188862   0.000000
    9       11.264505   0.000000
   10       15.286695   0.000000

 -0.1764706E+00  0.2352941E+00  0.3742002E-15  0.4070832E-03
    1       -4.802286   1.000000
    2        2.891754   1.000000
    3        4.329555   1.000000
    4        4.480391   1.000000
    5        5.064184   1.000000
    6        8.866703   1.000000
    7        9.581033  -0.005917
    8       10.291836   0.000000
    9       11.220434   0.000000
   10       15.388595   0.000000

 -0.1176471E+00  0.2352941E+00  0.3742002E-15  0.4070832E-03
    1       -4.866633   1.000000
    2        3.062043   1.000000
    3        4.337224   1.000000
    4        4.398861   1.000000
    5        5.119580   1.000000
    6        8.794792   1.000000
    7        9.590253  -0.013483
    8       10.340293   0.000000
    9       11.260303   0.000000
   10       15.613645   0.000000
