   23   23    1    1
  0.8703452E+01  0.6088057E-09  0.6088057E-09  0.6240821E-09  0.5000000E-15
   1.0000000000000000E-004
  CAR 
 Name                                    
     88    125     56

  0.3742002E-15  0.3742002E-15  0.3742002E-15  0.1371742E-02
    1       -6.112161   1.000000
    2       -3.847667   1.000000
    3       -3.155460   1.000000
    4       -2.559554   1.000000
    5       -2.398392   1.000000
    6       -2.282487   1.000000
    7       -2.274361   1.000000
    8       -1.922966   1.000000
    9       -1.856545   1.000000
   10       -1.665753   1.000000
   11       -1.613797   1.000000
   12       -0.295140   1.000000
   13        0.085657   1.000000
   14        0.212232   1.000000
   15        0.280964   1.000000
   16        1.792376   1.000000
   17        2.305407   1.000000
   18        2.340722   1.000000
   19        2.510127   1.000000
   20        2.785543   1.000000
   21        3.004995   1.000000
   22        3.206852   1.000000
   23        3.239997   1.000000
   24        3.720878   1.000000
   25        3.764022   1.000000
   26        3.950713   1.000000
   27        4.149238   1.000000
   28        4.209791   1.000000
   29        4.254038   1.000000
   30        4.431471   1.000000
   31        4.467757   1.000000
   32        4.637007   1.000000
   33        4.722860   1.000000
   34        4.781879   1.000000
   35        4.799374   1.000000
   36        5.639400   1.000000
   37        5.867765   1.000000
   38        6.485315   1.000000
   39        6.563151   1.000000
   40        6.921032   1.000000
   41        6.937475   1.000000
   42        7.165885   1.000000
   43        7.425272   1.000000
   44        7.852003   1.000000
   45        8.068455   1.006655
   46        8.170988   1.027981
   47        8.941224  -0.000000
   48        9.406000  -0.000000
   49        9.422118  -0.000000
   50        9.478374  -0.000000
   51        9.567094  -0.000000
   52       10.025518  -0.000000
   53       10.823902  -0.000000
   54       11.415062   0.000000
   55       11.706854   0.000000
   56       12.829825   0.000000

  0.1111111E+00  0.3648891E-15  0.3742002E-15  0.5486968E-02
    1       -6.053219   1.000000
    2       -3.829283   1.000000
    3       -3.155561   1.000000
    4       -2.783868   1.000000
    5       -2.562648   1.000000
    6       -2.445449   1.000000
    7       -2.425485   1.000000
    8       -2.212512   1.000000
    9       -1.516585   1.000000
   10       -1.401447   1.000000
   11       -1.087690   1.000000
   12       -0.210090   1.000000
   13        0.062826   1.000000
   14        0.215909   1.000000
   15        0.396604   1.000000
   16        1.839455   1.000000
   17        2.336073   1.000000
   18        2.336417   1.000000
   19        2.540712   1.000000
   20        2.768867   1.000000
   21        2.921482   1.000000
   22        3.060408   1.000000
   23        3.252245   1.000000
   24        3.460099   1.000000
   25        3.681564   1.000000
   26        3.970046   1.000000
   27        4.121540   1.000000
   28        4.179974   1.000000
   29        4.225134   1.000000
   30        4.387225   1.000000
   31        4.421813   1.000000
   32        4.549618   1.000000
   33        4.653563   1.000000
   34        4.922293   1.000000
   35        5.151731   1.000000
   36        5.649846   1.000000
   37        5.812205   1.000000
   38        5.913682   1.000000
   39        5.985852   1.000000
   40        7.092064   1.000000
   41        7.450958   1.000000
   42        7.456510   1.000000
   43        7.561052   1.000000
   44        7.692710   1.000000
   45        8.108571   1.020577
   46        8.182224   1.014360
   47        8.955775  -0.000000
   48        9.339326  -0.000000
   49        9.391319  -0.000000
   50        9.417970  -0.000000
   51        9.780077  -0.000000
   52       10.660930  -0.000000
   53       11.002634  -0.000000
   54       11.645612   0.000000
   55       11.797288   0.000000
   56       12.732156   0.000000

  0.2222222E+00  0.3721884E-15  0.3742002E-15  0.5486968E-02
    1       -5.878492   1.000000
    2       -3.773473   1.000000
    3       -3.462976   1.000000
    4       -3.171974   1.000000
    5       -2.665079   1.000000
    6       -2.646387   1.000000
    7       -2.465263   1.000000
    8       -2.438636   1.000000
    9       -1.040574   1.000000
   10       -0.947412   1.000000
   11       -0.323053   1.000000
   12       -0.071474   1.000000
   13        0.048447   1.000000
   14        0.203788   1.000000
   15        0.814233   1.000000
   16        1.957846   1.000000
   17        2.314356   1.000000
   18        2.335255   1.000000
   19        2.497289   1.000000
   20        2.542665   1.000000
   21        2.635520   1.000000
   22        2.824730   1.000000
   23        3.166144   1.000000
   24        3.388585   1.000000
   25        3.446669   1.000000
   26        3.976533   1.000000
   27        3.994264   1.000000
   28        4.115181   1.000000
   29        4.210994   1.000000
   30        4.318660   1.000000
   31        4.388769   1.000000
   32        4.516885   1.000000
   33        4.619857   1.000000
   34        4.924537   1.000000
   35        5.081989   1.000000
   36        5.353742   1.000000
   37        5.463530   1.000000
   38        5.690895   1.000000
   39        6.201521   1.000000
   40        6.874019   1.000000
   41        7.242398   1.000000
   42        7.556997   1.000000
   43        7.818224   1.000000
   44        8.106411   1.019608
   45        8.350767   0.018704
   46        8.525579  -0.001079
   47        8.994940  -0.000000
   48        9.056380  -0.000000
   49        9.126631  -0.000000
   50        9.230772  -0.000000
   51        9.555461  -0.000000
   52        9.733307  -0.000000
   53        9.896008  -0.000000
   54       10.107423  -0.000000
   55       10.358163  -0.000000
   56       11.314160   0.000000

  0.3333333E+00  0.4138540E-15  0.3742002E-15  0.5486968E-02
    1       -5.595269   1.000000
    2       -4.098445   1.000000
    3       -3.679264   1.000000
    4       -3.248796   1.000000
    5       -2.810611   1.000000
    6       -2.779119   1.000000
    7       -2.631228   1.000000
    8       -2.373335   1.000000
    9       -0.531602   1.000000
   10       -0.420825   1.000000
   11       -0.232648   1.000000
   12        0.184073   1.000000
   13        0.334196   1.000000
   14        0.569110   1.000000
   15        1.424392   1.000000
   16        1.860000   1.000000
   17        1.941291   1.000000
   18        2.094618   1.000000
   19        2.114101   1.000000
   20        2.282295   1.000000
   21        2.747231   1.000000
   22        2.785869   1.000000
   23        3.016430   1.000000
   24        3.192134   1.000000
   25        3.605594   1.000000
   26        3.859814   1.000000
   27        3.867178   1.000000
   28        4.031302   1.000000
   29        4.070335   1.000000
   30        4.194474   1.000000
   31        4.249153   1.000000
   32        4.375682   1.000000
   33        4.615146   1.000000
   34        4.697496   1.000000
   35        4.969479   1.000000
   36        5.117025   1.000000
   37        5.179084   1.000000
   38        6.210260   1.000000
   39        6.376432   1.000000
   40        6.743590   1.000000
   41        6.901416   1.000000
   42        7.681905   1.000000
   43        7.814495   1.000000
   44        8.118570   1.025178
   45        8.582843  -0.000056
   46        8.634996  -0.000002
   47        8.965835  -0.000000
   48        9.014817  -0.000000
   49        9.055523  -0.000000
   50        9.124940  -0.000000
   51        9.345361  -0.000000
   52        9.577717  -0.000000
   53        9.787887  -0.000000
   54        9.826645  -0.000000
   55       10.021883  -0.000000
   56       11.267563   0.000000

  0.4444444E+00  0.3861792E-15  0.3742002E-15  0.5486968E-02
    1       -5.231528   1.000000
    2       -4.641078   1.000000
    3       -3.548573   1.000000
    4       -3.392730   1.000000
    5       -2.895342   1.000000
    6       -2.821439   1.000000
    7       -2.713710   1.000000
    8       -2.322839   1.000000
    9       -0.339050   1.000000
   10       -0.101429   1.000000
   11        0.057087   1.000000
   12        0.170331   1.000000
   13        0.819356   1.000000
   14        1.254480   1.000000
   15        1.362626   1.000000
   16        1.451523   1.000000
   17        1.606222   1.000000
   18        2.074080   1.000000
   19        2.192730   1.000000
   20        2.221957   1.000000
   21        2.297741   1.000000
   22        2.945490   1.000000
   23        3.095099   1.000000
   24        3.130331   1.000000
   25        3.247688   1.000000
   26        3.646833   1.000000
   27        3.772761   1.000000
   28        3.910276   1.000000
   29        4.089196   1.000000
   30        4.126103   1.000000
   31        4.237021   1.000000
   32        4.285549   1.000000
   33        4.576294   1.000000
   34        4.697451   1.000000
   35        4.888635   1.000000
   36        5.137047   1.000000
   37        5.153888   1.000000
   38        6.229852   1.000000
   39        6.376165   1.000000
   40        6.607901   1.000000
   41        7.318054   1.000000
   42        7.756065   1.000000
   43        7.800642   1.000000
   44        8.078099   1.009105
   45        8.124333   1.027798
   46        8.191719   0.995667
   47        8.884394  -0.000000
   48        9.094555  -0.000000
   49        9.242973  -0.000000
   50        9.274247  -0.000000
   51        9.388593  -0.000000
   52        9.429576  -0.000000
   53        9.566996  -0.000000
   54        9.665362  -0.000000
   55       10.211605  -0.000000
   56       10.592346  -0.000000

  0.1111111E+00  0.1111111E+00  0.3742002E-15  0.2743484E-02
    1       -5.935681   1.000000
    2       -3.790574   1.000000
    3       -3.179522   1.000000
    4       -3.152107   1.000000
    5       -2.935436   1.000000
    6       -2.636563   1.000000
    7       -2.455735   1.000000
    8       -1.927032   1.000000
    9       -1.653222   1.000000
   10       -0.707579   1.000000
   11       -0.656601   1.000000
   12       -0.122397   1.000000
   13       -0.036276   1.000000
   14        0.350011   1.000000
   15        0.642696   1.000000
   16        1.893766   1.000000
   17        2.286718   1.000000
   18        2.342195   1.000000
   19        2.460945   1.000000
   20        2.643681   1.000000
   21        2.824643   1.000000
   22        2.968858   1.000000
   23        3.257849   1.000000
   24        3.370282   1.000000
   25        3.533715   1.000000
   26        3.766325   1.000000
   27        4.030313   1.000000
   28        4.170679   1.000000
   29        4.288453   1.000000
   30        4.349184   1.000000
   31        4.354878   1.000000
   32        4.525629   1.000000
   33        4.585076   1.000000
   34        5.230291   1.000000
   35        5.263647   1.000000
   36        5.292195   1.000000
   37        5.390396   1.000000
   38        5.564949   1.000000
   39        6.128995   1.000000
   40        6.888174   1.000000
   41        7.374103   1.000000
   42        7.565105   1.000000
   43        7.913707   1.000002
   44        7.985087   1.000171
   45        8.069104   1.006802
   46        8.486247  -0.005277
   47        8.983598  -0.000000
   48        9.204592  -0.000000
   49        9.239353  -0.000000
   50        9.355635  -0.000000
   51        9.617377  -0.000000
   52        9.745264  -0.000000
   53       10.209523  -0.000000
   54       10.557150  -0.000000
   55       11.620379   0.000000
   56       12.757506   0.000000

  0.2222222E+00  0.1111111E+00  0.3742002E-15  0.5486968E-02
    1       -5.705745   1.000000
    2       -3.771809   1.000000
    3       -3.715590   1.000000
    4       -3.233219   1.000000
    5       -3.173476   1.000000
    6       -2.832242   1.000000
    7       -2.332840   1.000000
    8       -2.000423   1.000000
    9       -1.236232   1.000000
   10       -0.375217   1.000000
   11       -0.216168   1.000000
   12        0.073630   1.000000
   13        0.322069   1.000000
   14        0.450631   1.000000
   15        1.140354   1.000000
   16        1.773359   1.000000
   17        2.008625   1.000000
   18        2.245932   1.000000
   19        2.321303   1.000000
   20        2.571710   1.000000
   21        2.768596   1.000000
   22        2.780458   1.000000
   23        3.128255   1.000000
   24        3.189040   1.000000
   25        3.568436   1.000000
   26        3.606908   1.000000
   27        3.954471   1.000000
   28        4.073647   1.000000
   29        4.176488   1.000000
   30        4.253247   1.000000
   31        4.378358   1.000000
   32        4.533661   1.000000
   33        4.565667   1.000000
   34        4.673084   1.000000
   35        5.003447   1.000000
   36        5.119626   1.000000
   37        5.347964   1.000000
   38        5.799655   1.000000
   39        6.504997   1.000000
   40        6.695077   1.000000
   41        6.932380   1.000000
   42        7.711616   1.000000
   43        7.875949   1.000000
   44        8.151475   1.035458
   45        8.525872  -0.001065
   46        8.798443  -0.000000
   47        8.891388  -0.000000
   48        9.031885  -0.000000
   49        9.086547  -0.000000
   50        9.150358  -0.000000
   51        9.417752  -0.000000
   52        9.540864  -0.000000
   53        9.908379  -0.000000
   54        9.982825  -0.000000
   55       10.043095  -0.000000
   56       11.084261   0.000000

  0.3333333E+00  0.1111111E+00  0.3742002E-15  0.5486968E-02
    1       -5.375504   1.000000
    2       -4.358611   1.000000
    3       -3.605027   1.000000
    4       -3.380361   1.000000
    5       -3.283358   1.000000
    6       -2.932474   1.000000
    7       -2.215071   1.000000
    8       -2.112576   1.000000
    9       -0.675766   1.000000
   10       -0.583144   1.000000
   11        0.241858   1.000000
   12        0.498440   1.000000
   13        0.645524   1.000000
   14        0.950745   1.000000
   15        1.124128   1.000000
   16        1.793396   1.000000
   17        1.880309   1.000000
   18        2.118591   1.000000
   19        2.141106   1.000000
   20        2.243782   1.000000
   21        2.509867   1.000000
   22        2.747460   1.000000
   23        2.846063   1.000000
   24        3.337419   1.000000
   25        3.499560   1.000000
   26        3.682079   1.000000
   27        3.820166   1.000000
   28        3.842313   1.000000
   29        3.924806   1.000000
   30        4.114841   1.000000
   31        4.280038   1.000000
   32        4.301988   1.000000
   33        4.672697   1.000000
   34        4.707687   1.000000
   35        4.838151   1.000000
   36        5.045997   1.000000
   37        5.332180   1.000000
   38        6.205266   1.000000
   39        6.330376   1.000000
   40        6.488626   1.000000
   41        7.161434   1.000000
   42        7.758393   1.000000
   43        7.869669   1.000000
   44        8.192868   0.992898
   45        8.348141   0.026510
   46        8.445066  -0.018087
   47        8.889199  -0.000000
   48        8.970308  -0.000000
   49        9.098803  -0.000000
   50        9.221753  -0.000000
   51        9.356261  -0.000000
   52        9.534765  -0.000000
   53        9.619079  -0.000000
   54        9.702562  -0.000000
   55       10.249932  -0.000000
   56       10.355058  -0.000000

  0.4444444E+00  0.1111111E+00  0.3742002E-15  0.5486968E-02
    1       -5.068282   1.000000
    2       -4.753583   1.000000
    3       -3.465320   1.000000
    4       -3.452687   1.000000
    5       -3.428039   1.000000
    6       -2.938771   1.000000
    7       -2.163716   1.000000
    8       -2.153191   1.000000
    9       -0.659833   1.000000
   10       -0.325269   1.000000
   11        0.489783   1.000000
   12        0.515509   1.000000
   13        0.714234   1.000000
   14        1.021099   1.000000
   15        1.438884   1.000000
   16        1.546534   1.000000
   17        1.848681   1.000000
   18        2.058942   1.000000
   19        2.086067   1.000000
   20        2.296781   1.000000
   21        2.429321   1.000000
   22        2.631523   1.000000
   23        2.756592   1.000000
   24        3.173138   1.000000
   25        3.498965   1.000000
   26        3.579508   1.000000
   27        3.684505   1.000000
   28        3.813217   1.000000
   29        3.980286   1.000000
   30        4.046524   1.000000
   31        4.263939   1.000000
   32        4.275093   1.000000
   33        4.454258   1.000000
   34        4.831727   1.000000
   35        5.000882   1.000000
   36        5.200342   1.000000
   37        5.207512   1.000000
   38        6.129165   1.000000
   39        6.249253   1.000000
   40        6.502984   1.000000
   41        7.622616   1.000000
   42        7.692687   1.000000
   43        7.908067   1.000001
   44        8.042842   1.002577
   45        8.146355   1.035073
   46        8.204577   0.957858
   47        8.806159  -0.000000
   48        9.119756  -0.000000
   49        9.148675  -0.000000
   50        9.158532  -0.000000
   51        9.310121  -0.000000
   52        9.392120  -0.000000
   53        9.551871  -0.000000
   54        9.973783  -0.000000
   55       10.061337  -0.000000
   56       10.729490  -0.000000

 -0.4444444E+00  0.1111111E+00  0.3742002E-15  0.5486968E-02
    1       -5.379403   1.000000
    2       -4.354535   1.000000
    3       -3.606807   1.000000
    4       -3.380402   1.000000
    5       -3.318332   1.000000
    6       -2.904101   1.000000
    7       -2.206659   1.000000
    8       -2.117055   1.000000
    9       -0.665134   1.000000
   10       -0.566893   1.000000
   11        0.241603   1.000000
   12        0.504942   1.000000
   13        0.630918   1.000000
   14        0.892886   1.000000
   15        1.194595   1.000000
   16        1.679112   1.000000
   17        1.839273   1.000000
   18        2.157627   1.000000
   19        2.212839   1.000000
   20        2.326947   1.000000
   21        2.469486   1.000000
   22        2.783331   1.000000
   23        2.784308   1.000000
   24        3.305204   1.000000
   25        3.516755   1.000000
   26        3.682245   1.000000
   27        3.689262   1.000000
   28        3.819045   1.000000
   29        3.862791   1.000000
   30        4.081430   1.000000
   31        4.309544   1.000000
   32        4.311603   1.000000
   33        4.738039   1.000000
   34        4.768792   1.000000
   35        4.943712   1.000000
   36        5.167294   1.000000
   37        5.234638   1.000000
   38        6.152887   1.000000
   39        6.443239   1.000000
   40        6.449836   1.000000
   41        7.245401   1.000000
   42        7.708743   1.000000
   43        7.801010   1.000000
   44        8.199149   0.975689
   45        8.368121  -0.017895
   46        8.446145  -0.017624
   47        8.864004  -0.000000
   48        8.980610  -0.000000
   49        9.104533  -0.000000
   50        9.239839  -0.000000
   51        9.532823  -0.000000
   52        9.680377  -0.000000
   53        9.689413  -0.000000
   54       10.103337  -0.000000
   55       10.252221  -0.000000
   56       10.809714  -0.000000

 -0.3333333E+00  0.1111111E+00  0.3742002E-15  0.5486968E-02
    1       -5.709078   1.000000
    2       -3.768226   1.000000
    3       -3.722711   1.000000
    4       -3.233201   1.000000
    5       -3.211929   1.000000
    6       -2.819816   1.000000
    7       -2.292287   1.000000
    8       -2.010321   1.000000
    9       -1.218095   1.000000
   10       -0.355899   1.000000
   11       -0.228002   1.000000
   12        0.070034   1.000000
   13        0.302326   1.000000
   14        0.456630   1.000000
   15        1.065755   1.000000
   16        1.826004   1.000000
   17        2.108068   1.000000
   18        2.303152   1.000000
   19        2.348129   1.000000
   20        2.559655   1.000000
   21        2.630258   1.000000
   22        2.659588   1.000000
   23        3.146315   1.000000
   24        3.204866   1.000000
   25        3.455578   1.000000
   26        3.644907   1.000000
   27        3.910258   1.000000
   28        3.957897   1.000000
   29        4.174301   1.000000
   30        4.247454   1.000000
   31        4.375454   1.000000
   32        4.568354   1.000000
   33        4.616346   1.000000
   34        4.771201   1.000000
   35        5.016068   1.000000
   36        5.273105   1.000000
   37        5.299078   1.000000
   38        5.894861   1.000000
   39        6.512139   1.000000
   40        6.813938   1.000000
   41        6.910191   1.000000
   42        7.631927   1.000000
   43        7.783751   1.000000
   44        8.163068   1.033070
   45        8.539425  -0.000566
   46        8.827992  -0.000000
   47        8.893087  -0.000000
   48        9.036857  -0.000000
   49        9.059362  -0.000000
   50        9.144370  -0.000000
   51        9.362269  -0.000000
   52        9.596141  -0.000000
   53        9.964027  -0.000000
   54       10.026542  -0.000000
   55       10.055422  -0.000000
   56       11.118081   0.000000

 -0.2222222E+00  0.1111111E+00  0.3742002E-15  0.5486968E-02
    1       -5.937901   1.000000
    2       -3.797141   1.000000
    3       -3.177863   1.000000
    4       -3.169646   1.000000
    5       -2.935656   1.000000
    6       -2.705290   1.000000
    7       -2.348845   1.000000
    8       -1.938955   1.000000
    9       -1.629899   1.000000
   10       -0.758638   1.000000
   11       -0.620198   1.000000
   12       -0.106808   1.000000
   13       -0.050149   1.000000
   14        0.322262   1.000000
   15        0.622150   1.000000
   16        1.971970   1.000000
   17        2.389668   1.000000
   18        2.405357   1.000000
   19        2.495891   1.000000
   20        2.511068   1.000000
   21        2.665130   1.000000
   22        3.072818   1.000000
   23        3.176930   1.000000
   24        3.291648   1.000000
   25        3.416208   1.000000
   26        3.872126   1.000000
   27        3.921860   1.000000
   28        4.090591   1.000000
   29        4.236544   1.000000
   30        4.347193   1.000000
   31        4.492163   1.000000
   32        4.543528   1.000000
   33        4.671036   1.000000
   34        5.200161   1.000000
   35        5.227896   1.000000
   36        5.348367   1.000000
   37        5.469771   1.000000
   38        5.697572   1.000000
   39        6.120053   1.000000
   40        7.028893   1.000000
   41        7.396046   1.000000
   42        7.442434   1.000000
   43        7.841972   1.000000
   44        7.987718   1.000197
   45        8.050869   1.003531
   46        8.494919  -0.003841
   47        8.982230  -0.000000
   48        9.203713  -0.000000
   49        9.230561  -0.000000
   50        9.245070  -0.000000
   51        9.475376  -0.000000
   52        9.786109  -0.000000
   53        9.968442  -0.000000
   54       10.550812  -0.000000
   55       11.356170   0.000000
   56       11.443220   0.000000

 -0.1111111E+00  0.1111111E+00  0.3742002E-15  0.2743484E-02
    1       -6.053998   1.000000
    2       -3.831857   1.000000
    3       -3.159711   1.000000
    4       -2.780728   1.000000
    5       -2.625985   1.000000
    6       -2.452730   1.000000
    7       -2.367421   1.000000
    8       -2.174927   1.000000
    9       -1.525798   1.000000
   10       -1.413145   1.000000
   11       -1.081159   1.000000
   12       -0.214797   1.000000
   13        0.109255   1.000000
   14        0.132711   1.000000
   15        0.420159   1.000000
   16        1.868506   1.000000
   17        2.347948   1.000000
   18        2.388823   1.000000
   19        2.478612   1.000000
   20        2.726448   1.000000
   21        2.896856   1.000000
   22        3.223236   1.000000
   23        3.245080   1.000000
   24        3.389478   1.000000
   25        3.532278   1.000000
   26        3.929188   1.000000
   27        4.126548   1.000000
   28        4.175357   1.000000
   29        4.242634   1.000000
   30        4.315710   1.000000
   31        4.475615   1.000000
   32        4.627311   1.000000
   33        4.638334   1.000000
   34        5.078201   1.000000
   35        5.096173   1.000000
   36        5.648101   1.000000
   37        5.800028   1.000000
   38        5.911045   1.000000
   39        6.014283   1.000000
   40        7.226133   1.000000
   41        7.324311   1.000000
   42        7.499077   1.000000
   43        7.540269   1.000000
   44        7.703628   1.000000
   45        8.028885   1.001436
   46        8.217221   0.905056
   47        8.955677  -0.000000
   48        9.355692  -0.000000
   49        9.389025  -0.000000
   50        9.395590  -0.000000
   51        9.633545  -0.000000
   52        9.936213  -0.000000
   53       10.686821  -0.000000
   54       11.244637   0.000000
   55       11.911628   0.000000
   56       12.524026   0.000000

  0.2222222E+00  0.2222222E+00  0.3742002E-15  0.2743484E-02
    1       -5.426407   1.000000
    2       -4.096349   1.000000
    3       -3.734549   1.000000
    4       -3.623625   1.000000
    5       -3.176833   1.000000
    6       -3.065570   1.000000
    7       -2.116067   1.000000
    8       -1.397946   1.000000
    9       -1.387254   1.000000
   10       -0.750258   1.000000
   11        0.473801   1.000000
   12        0.508339   1.000000
   13        0.757674   1.000000
   14        0.787912   1.000000
   15        1.041897   1.000000
   16        1.536125   1.000000
   17        2.101457   1.000000
   18        2.228591   1.000000
   19        2.241827   1.000000
   20        2.295588   1.000000
   21        2.531892   1.000000
   22        2.811360   1.000000
   23        2.874973   1.000000
   24        3.255414   1.000000
   25        3.318630   1.000000
   26        3.622930   1.000000
   27        3.816109   1.000000
   28        3.954931   1.000000
   29        3.979778   1.000000
   30        4.002343   1.000000
   31        4.308203   1.000000
   32        4.397625   1.000000
   33        4.618713   1.000000
   34        4.715322   1.000000
   35        4.927076   1.000000
   36        4.944741   1.000000
   37        5.538194   1.000000
   38        5.946376   1.000000
   39        6.298227   1.000000
   40        6.545898   1.000000
   41        7.107407   1.000000
   42        7.719417   1.000000
   43        7.929107   1.000006
   44        8.349004   0.023875
   45        8.522202  -0.001255
   46        8.694386  -0.000000
   47        8.730998  -0.000000
   48        8.806921  -0.000000
   49        9.094569  -0.000000
   50        9.148210  -0.000000
   51        9.196586  -0.000000
   52        9.636165  -0.000000
   53        9.681340  -0.000000
   54        9.930134  -0.000000
   55        9.971439  -0.000000
   56       10.840283  -0.000000

  0.3333333E+00  0.2222222E+00  0.3742002E-15  0.5486968E-02
    1       -5.063834   1.000000
    2       -4.546437   1.000000
    3       -3.924187   1.000000
    4       -3.501060   1.000000
    5       -3.317483   1.000000
    6       -3.134005   1.000000
    7       -1.906720   1.000000
    8       -1.475087   1.000000
    9       -1.036052   1.000000
   10       -0.796571   1.000000
   11        0.343512   1.000000
   12        0.856217   1.000000
   13        1.000695   1.000000
   14        1.036531   1.000000
   15        1.364054   1.000000
   16        1.692023   1.000000
   17        1.973212   1.000000
   18        2.085727   1.000000
   19        2.112978   1.000000
   20        2.277561   1.000000
   21        2.469207   1.000000
   22        2.528820   1.000000
   23        2.531374   1.000000
   24        3.328227   1.000000
   25        3.378829   1.000000
   26        3.469991   1.000000
   27        3.586642   1.000000
   28        3.743106   1.000000
   29        3.848691   1.000000
   30        4.079849   1.000000
   31        4.210535   1.000000
   32        4.346784   1.000000
   33        4.364537   1.000000
   34        4.857060   1.000000
   35        5.195775   1.000000
   36        5.202458   1.000000
   37        5.384948   1.000000
   38        5.994884   1.000000
   39        6.177972   1.000000
   40        6.228294   1.000000
   41        7.597247   1.000000
   42        7.677940   1.000000
   43        8.166843   1.031052
   44        8.320286   0.151002
   45        8.361222  -0.006278
   46        8.422822  -0.028176
   47        8.689699  -0.000000
   48        8.861434  -0.000000
   49        8.878422  -0.000000
   50        8.991776  -0.000000
   51        9.155823  -0.000000
   52        9.406222  -0.000000
   53        9.462587  -0.000000
   54        9.570343  -0.000000
   55        9.918720  -0.000000
   56       10.417773  -0.000000

  0.4444444E+00  0.2222222E+00  0.3742002E-15  0.5486968E-02
    1       -5.073777   1.000000
    2       -4.533248   1.000000
    3       -3.928124   1.000000
    4       -3.504498   1.000000
    5       -3.356354   1.000000
    6       -3.103265   1.000000
    7       -1.888304   1.000000
    8       -1.478178   1.000000
    9       -1.036911   1.000000
   10       -0.790053   1.000000
   11        0.338299   1.000000
   12        0.851304   1.000000
   13        1.016258   1.000000
   14        1.038647   1.000000
   15        1.370442   1.000000
   16        1.667500   1.000000
   17        1.884703   1.000000
   18        2.092551   1.000000
   19        2.163798   1.000000
   20        2.303943   1.000000
   21        2.351293   1.000000
   22        2.546708   1.000000
   23        2.693670   1.000000
   24        3.279841   1.000000
   25        3.328578   1.000000
   26        3.484616   1.000000
   27        3.570188   1.000000
   28        3.636950   1.000000
   29        3.885019   1.000000
   30        3.907087   1.000000
   31        4.170332   1.000000
   32        4.371204   1.000000
   33        4.554316   1.000000