   48   48   40    1
  0.2461586E+02  0.8645320E-09  0.6085000E-09  0.2593596E-08  0.5000000E-15
   1.0000000000000000E-004
  CAR 
 Name                                    
    178    149    114

  0.3742002E-15  0.3742002E-15  0.3742002E-15  0.3367003E-02
    1      -14.073205   1.000000
    2      -12.834327   1.000000
    3      -12.533327   1.000000
    4      -12.067859   1.000000
    5      -11.650606   1.000000
    6      -11.323732   1.000000
    7      -11.239919   1.000000
    8      -10.985560   1.000000
    9      -10.855348   1.000000
   10      -10.838508   1.000000
   11      -10.688457   1.000000
   12      -10.554834   1.000000
   13      -10.327545   1.000000
   14      -10.289101   1.000000
   15       -9.907031   1.000000
   16       -9.407121   1.000000
   17       -9.223991   1.000000
   18       -9.055673   1.000000
   19       -8.987448   1.000000
   20       -8.552884   1.000000
   21       -8.478834   1.000000
   22       -8.315806   1.000000
   23       -8.167650   1.000000
   24       -8.113562   1.000000
   25       -7.714343   1.000000
   26       -7.634379   1.000000
   27       -7.561075   1.000000
   28       -7.287982   1.000000
   29       -6.743376   1.000000
   30       -6.655637   1.000000
   31       -6.417615   1.000000
   32       -6.353091   1.000000
   33       -6.234451   1.000000
   34       -6.076386   1.000000
   35       -6.002303   1.000000
   36       -5.955244   1.000000
   37       -5.676498   1.000000
   38       -5.539265   1.000000
   39       -5.469728   1.000000
   40       -5.404532   1.000000
   41       -5.184642   1.000000
   42       -5.116000   1.000000
   43       -5.037343   1.000000
   44       -4.996616   1.000000
   45       -4.909034   1.000000
   46       -4.849689   1.000000
   47       -4.794988   1.000000
   48       -4.707121   1.000000
   49       -4.535810   1.000000
   50       -4.485893   1.000000
   51       -4.379296   1.000000
   52       -4.337080   1.000000
   53       -4.154237   1.000000
   54       -4.117300   1.000000
   55       -4.068612   1.000000
   56       -4.060833   1.000000
   57       -3.933063   1.000000
   58       -3.905954   1.000000
   59       -3.820306   1.000000
   60       -3.769951   1.000000
   61       -3.590112   1.000000
   62       -3.570375   1.000000
   63       -3.448702   1.000000
   64       -3.418288   1.000000
   65       -3.299441   1.000000
   66       -3.143393   1.000000
   67       -3.099918   1.000000
   68       -2.926258   1.000000
   69       -2.862329   1.000000
   70       -2.704001   1.000000
   71       -2.650629   1.000000
   72       -2.512496   1.000000
   73       -2.426378   1.000000
   74       -2.335515   1.000000
   75       -2.016535   1.000000
   76       -1.821018   1.000000
   77       -1.779328   1.000000
   78       -1.730498   1.000000
   79       -1.584660   1.000000
   80       -1.540521   1.000000
   81       -1.444655   1.000000
   82       -1.265402   1.000000
   83       -1.224634   1.000000
   84       -0.962427   1.000066
   85       -0.704870   1.015417
   86       -0.597895   1.035423
   87       -0.460693   0.898284
   88       -0.379788   0.624911
   89       -0.154895  -0.022338
   90       -0.080879  -0.033573
   91       -0.060764  -0.029990
   92       -0.028262  -0.022687
   93        0.071610  -0.005562
   94        0.201120  -0.000344
   95        0.306102  -0.000018
   96        0.352054  -0.000004
   97        0.379022  -0.000002
   98        0.422252  -0.000000
   99        0.513817  -0.000000
  100        0.621062  -0.000000
  101        0.647573  -0.000000
  102        0.693628  -0.000000
  103        0.875822  -0.000000
  104        0.943685  -0.000000
  105        1.020030  -0.000000
  106        1.085784  -0.000000
  107        1.104414  -0.000000
  108        1.129922  -0.000000
  109        1.224628  -0.000000
  110        1.312989  -0.000000
  111        1.336180  -0.000000
  112        1.512530  -0.000000
  113        1.616204  -0.000000
  114        1.736119  -0.000000

  0.1111111E+00  0.3729374E-15  0.3860503E-15  0.6734007E-02
    1      -14.049636   1.000000
    2      -12.828471   1.000000
    3      -12.635197   1.000000
    4      -11.996568   1.000000
    5      -11.638059   1.000000
    6      -11.323067   1.000000
    7      -11.281543   1.000000
    8      -10.994141   1.000000
    9      -10.855357   1.000000
   10      -10.832960   1.000000
   11      -10.679209   1.000000
   12      -10.544224   1.000000
   13      -10.309472   1.000000
   14      -10.253075   1.000000
   15       -9.909215   1.000000
   16       -9.423106   1.000000
   17       -9.228805   1.000000
   18       -9.045758   1.000000
   19       -8.992882   1.000000
   20       -8.603204   1.000000
   21       -8.511338   1.000000
   22       -8.318692   1.000000
   23       -8.155280   1.000000
   24       -8.086295   1.000000
   25       -7.709929   1.000000
   26       -7.655349   1.000000
   27       -7.606239   1.000000
   28       -7.343405   1.000000
   29       -6.704888   1.000000
   30       -6.611844   1.000000
   31       -6.388958   1.000000
   32       -6.312566   1.000000
   33       -6.209521   1.000000
   34       -6.088409   1.000000
   35       -6.011349   1.000000
   36       -5.932950   1.000000
   37       -5.696118   1.000000
   38       -5.503193   1.000000
   39       -5.450364   1.000000
   40       -5.368574   1.000000
   41       -5.267158   1.000000
   42       -5.142142   1.000000
   43       -5.036579   1.000000
   44       -4.956472   1.000000
   45       -4.901484   1.000000
   46       -4.845347   1.000000
   47       -4.770787   1.000000
   48       -4.700185   1.000000
   49       -4.545097   1.000000
   50       -4.459474   1.000000
   51       -4.364165   1.000000
   52       -4.330053   1.000000
   53       -4.177992   1.000000
   54       -4.108637   1.000000
   55       -4.070058   1.000000
   56       -4.050011   1.000000
   57       -3.967007   1.000000
   58       -3.896340   1.000000
   59       -3.834623   1.000000
   60       -3.758329   1.000000
   61       -3.652566   1.000000
   62       -3.543474   1.000000
   63       -3.472486   1.000000
   64       -3.439484   1.000000
   65       -3.311099   1.000000
   66       -3.111867   1.000000
   67       -3.078702   1.000000
   68       -2.927943   1.000000
   69       -2.865559   1.000000
   70       -2.744350   1.000000
   71       -2.671687   1.000000
   72       -2.484935   1.000000
   73       -2.413797   1.000000
   74       -2.329525   1.000000
   75       -2.076116   1.000000
   76       -1.833587   1.000000
   77       -1.751510   1.000000
   78       -1.716814   1.000000
   79       -1.577273   1.000000
   80       -1.498864   1.000000
   81       -1.413650   1.000000
   82       -1.284538   1.000000
   83       -1.208518   1.000000
   84       -0.999457   1.000022
   85       -0.694719   1.017510
   86       -0.583463   1.034919
   87       -0.480140   0.941668
   88       -0.361986   0.551038
   89       -0.174167  -0.007527
   90       -0.092176  -0.034882
   91       -0.054133  -0.028584
   92        0.010599  -0.014336
   93        0.105730  -0.002944
   94        0.162214  -0.000880
   95        0.282436  -0.000037
   96        0.340503  -0.000006
   97        0.384723  -0.000001
   98        0.402129  -0.000001
   99        0.520525  -0.000000
  100        0.631277  -0.000000
  101        0.652255  -0.000000
  102        0.732045  -0.000000
  103        0.889808  -0.000000
  104        0.981694  -0.000000
  105        1.042024  -0.000000
  106        1.094834  -0.000000
  107        1.110420  -0.000000
  108        1.141615  -0.000000
  109        1.239522  -0.000000
  110        1.305623  -0.000000
  111        1.347763  -0.000000
  112        1.451532  -0.000000
  113        1.572808  -0.000000
  114        1.836764  -0.000000

  0.2222222E+00  0.3922785E-15  0.3630220E-15  0.6734007E-02
    1      -13.981074   1.000000
    2      -12.921611   1.000000
    3      -12.712067   1.000000
    4      -11.907215   1.000000
    5      -11.627417   1.000000
    6      -11.361650   1.000000
    7      -11.300383   1.000000
    8      -11.014316   1.000000
    9      -10.857875   1.000000
   10      -10.817589   1.000000
   11      -10.655194   1.000000
   12      -10.517916   1.000000
   13      -10.281837   1.000000
   14      -10.155228   1.000000
   15       -9.918214   1.000000
   16       -9.467891   1.000000
   17       -9.229618   1.000000
   18       -9.007692   1.000000
   19       -8.993826   1.000000
   20       -8.737451   1.000000
   21       -8.616799   1.000000
   22       -8.323263   1.000000
   23       -8.169036   1.000000
   24       -7.998732   1.000000
   25       -7.735305   1.000000
   26       -7.683027   1.000000
   27       -7.653819   1.000000
   28       -7.419910   1.000000
   29       -6.664605   1.000000
   30       -6.552449   1.000000
   31       -6.350004   1.000000
   32       -6.265802   1.000000
   33       -6.146150   1.000000
   34       -6.099110   1.000000
   35       -5.991162   1.000000
   36       -5.866554   1.000000
   37       -5.661849   1.000000
   38       -5.546232   1.000000
   39       -5.420023   1.000000
   40       -5.329382   1.000000
   41       -5.232212   1.000000
   42       -5.111482   1.000000
   43       -5.047130   1.000000
   44       -5.001871   1.000000
   45       -4.931653   1.000000
   46       -4.812652   1.000000
   47       -4.711874   1.000000
   48       -4.653139   1.000000
   49       -4.563359   1.000000
   50       -4.435653   1.000000
   51       -4.349809   1.000000
   52       -4.289010   1.000000
   53       -4.215339   1.000000
   54       -4.132254   1.000000
   55       -4.072003   1.000000
   56       -4.051646   1.000000
   57       -3.972941   1.000000
   58       -3.878125   1.000000
   59       -3.849973   1.000000
   60       -3.738936   1.000000
   61       -3.709475   1.000000
   62       -3.622887   1.000000
   63       -3.528950   1.000000
   64       -3.430641   1.000000
   65       -3.322626   1.000000
   66       -3.100085   1.000000
   67       -3.019289   1.000000
   68       -2.956842   1.000000
   69       -2.926359   1.000000
   70       -2.762519   1.000000
   71       -2.703223   1.000000
   72       -2.449259   1.000000
   73       -2.379634   1.000000
   74       -2.332035   1.000000
   75       -2.163031   1.000000
   76       -1.860413   1.000000
   77       -1.710154   1.000000
   78       -1.678520   1.000000
   79       -1.576733   1.000000
   80       -1.500159   1.000000
   81       -1.310284   1.000000
   82       -1.228406   1.000000
   83       -1.155120   1.000000
   84       -1.094752   1.000001
   85       -0.708374   1.014727
   86       -0.549139   1.024728
   87       -0.523083   1.005042
   88       -0.317885   0.366435
   89       -0.160742  -0.018549
   90       -0.137739  -0.030341
   91       -0.035812  -0.024434
   92        0.028598  -0.011138
   93        0.105509  -0.002957
   94        0.143852  -0.001330
   95        0.223115  -0.000195
   96        0.353368  -0.000004
   97        0.384672  -0.000001
   98        0.441509  -0.000000
   99        0.534182  -0.000000
  100        0.627007  -0.000000
  101        0.659763  -0.000000
  102        0.851641  -0.000000
  103        0.934628  -0.000000
  104        0.996429  -0.000000
  105        1.063111  -0.000000
  106        1.124182  -0.000000
  107        1.152382  -0.000000
  108        1.188870  -0.000000
  109        1.279108  -0.000000
  110        1.310260  -0.000000
  111        1.349079  -0.000000
  112        1.456525  -0.000000
  113        1.541096  -0.000000
  114        1.667808  -0.000000

  0.3333333E+00  0.3713828E-15  0.3468587E-15  0.6734007E-02
    1      -13.876682   1.000000
    2      -13.134700   1.000000
    3      -12.653629   1.000000
    4      -11.906593   1.000000
    5      -11.636262   1.000000
    6      -11.365831   1.000000
    7      -11.288156   1.000000
    8      -11.034707   1.000000
    9      -10.861755   1.000000
   10      -10.798987   1.000000
   11      -10.626499   1.000000
   12      -10.497568   1.000000
   13      -10.256841   1.000000
   14      -10.021523   1.000000
   15       -9.939590   1.000000
   16       -9.531986   1.000000
   17       -9.202050   1.000000
   18       -9.027389   1.000000
   19       -8.907988   1.000000
   20       -8.876876   1.000000
   21       -8.769775   1.000000
   22       -8.333723   1.000000
   23       -8.191273   1.000000
   24       -8.062227   1.000000
   25       -7.713741   1.000000
   26       -7.698798   1.000000
   27       -7.565476   1.000000
   28       -7.441972   1.000000
   29       -6.650947   1.000000
   30       -6.578638   1.000000
   31       -6.471127   1.000000
   32       -6.292610   1.000000
   33       -6.032622   1.000000
   34       -5.975318   1.000000
   35       -5.961897   1.000000
   36       -5.776463   1.000000
   37       -5.579023   1.000000
   38       -5.544825   1.000000
   39       -5.392022   1.000000
   40       -5.281668   1.000000
   41       -5.235528   1.000000
   42       -5.110413   1.000000
   43       -5.070358   1.000000
   44       -4.980072   1.000000
   45       -4.910582   1.000000
   46       -4.785352   1.000000
   47       -4.689383   1.000000
   48       -4.606140   1.000000
   49       -4.557311   1.000000
   50       -4.426671   1.000000
   51       -4.371279   1.000000
   52       -4.286588   1.000000
   53       -4.243764   1.000000
   54       -4.143819   1.000000
   55       -4.120595   1.000000
   56       -4.038072   1.000000
   57       -3.935213   1.000000
   58       -3.868179   1.000000
   59       -3.825564   1.000000
   60       -3.744256   1.000000
   61       -3.716876   1.000000
   62       -3.703641   1.000000
   63       -3.549264   1.000000
   64       -3.423020   1.000000
   65       -3.331150   1.000000
   66       -3.183684   1.000000
   67       -3.102675   1.000000
   68       -2.985305   1.000000
   69       -2.919383   1.000000
   70       -2.744024   1.000000
   71       -2.709805   1.000000
   72       -2.519700   1.000000
   73       -2.327061   1.000000
   74       -2.295575   1.000000
   75       -2.152818   1.000000
   76       -1.905135   1.000000
   77       -1.722608   1.000000
   78       -1.630561   1.000000
   79       -1.565293   1.000000
   80       -1.502828   1.000000
   81       -1.320275   1.000000
   82       -1.167971   1.000000
   83       -1.150315   1.000000
   84       -0.940259   1.000122
   85       -0.702604   1.015872
   86       -0.571624   1.033037
   87       -0.554530   1.027366
   88       -0.290566   0.260764
   89       -0.236552   0.095468
   90       -0.169917  -0.011383
   91       -0.129067  -0.032834
   92        0.052030  -0.007748
   93        0.123154  -0.002070
   94        0.207081  -0.000295
   95        0.245819  -0.000105
   96        0.335501  -0.000007
   97        0.376020  -0.000002
   98        0.545103  -0.000000
   99        0.578282  -0.000000
  100        0.650772  -0.000000
  101        0.689469  -0.000000
  102        0.928879  -0.000000
  103        0.956008  -0.000000
  104        1.009941  -0.000000
  105        1.048869  -0.000000
  106        1.123099  -0.000000
  107        1.187829  -0.000000
  108        1.240911  -0.000000
  109        1.307207  -0.000000
  110        1.336737  -0.000000
  111        1.396647  -0.000000
  112        1.437278  -0.000000
  113        1.501860  -0.000000
  114        1.589871  -0.000000

  0.4444444E+00  0.3870091E-15  0.3932070E-15  0.6734007E-02
    1      -13.771135   1.000000
    2      -13.304680   1.000000
    3      -12.593407   1.000000
    4      -11.965573   1.000000
    5      -11.624375   1.000000
    6      -11.350639   1.000000
    7      -11.279507   1.000000
    8      -11.046746   1.000000
    9      -10.864137   1.000000
   10      -10.786591   1.000000
   11      -10.606148   1.000000
   12      -10.495332   1.000000
   13      -10.229503   1.000000
   14       -9.964816   1.000000
   15       -9.900303   1.000000
   16       -9.596811   1.000000
   17       -9.142205   1.000000
   18       -9.093522   1.000000
   19       -8.926913   1.000000
   20       -8.919723   1.000000
   21       -8.797406   1.000000
   22       -8.350359   1.000000
   23       -8.280336   1.000000
   24       -8.094387   1.000000
   25       -7.720284   1.000000
   26       -7.667276   1.000000
   27       -7.547648   1.000000
   28       -7.291429   1.000000
   29       -6.732726   1.000000
   30       -6.672296   1.000000
   31       -6.561222   1.000000
   32       -6.286894   1.000000
   33       -6.002721   1.000000
   34       -5.872760   1.000000
   35       -5.862337   1.000000
   36       -5.711964   1.000000
   37       -5.552053   1.000000
   38       -5.478774   1.000000
   39       -5.408249   1.000000
   40       -5.297971   1.000000
   41       -5.223933   1.000000
   42       -5.107653   1.000000
   43       -5.080393   1.000000
   44       -4.994309   1.000000
   45       -4.819054   1.000000
   46       -4.780173   1.000000
   47       -4.675430   1.000000
   48       -4.590198   1.000000
   49       -4.507308   1.000000
   50       -4.439226   1.000000
   51       -4.409821   1.000000
   52       -4.367513   1.000000
   53       -4.222218   1.000000
   54       -4.176769   1.000000
   55       -4.137939   1.000000
   56       -3.981999   1.000000
   57       -3.948410   1.000000
   58       -3.860306   1.000000
   59       -3.802047   1.000000
   60       -3.742128   1.000000
   61       -3.704394   1.000000
   62       -3.675906   1.000000
   63       -3.555057   1.000000
   64       -3.439670   1.000000
   65       -3.345531   1.000000
   66       -3.315288   1.000000
   67       -3.154740   1.000000
   68       -3.013304   1.000000
   69       -2.896741   1.000000
   70       -2.768175   1.000000
   71       -2.693078   1.000000
   72       -2.581439   1.000000
   73       -2.301226   1.000000
   74       -2.226278   1.000000
   75       -2.119109   1.000000
   76       -1.937758   1.000000
   77       -1.747050   1.000000
   78       -1.630338   1.000000
   79       -1.548438   1.000000
   80       -1.491242   1.000000
   81       -1.388892   1.000000
   82       -1.141776   1.000000
   83       -1.041042   1.000006
   84       -0.821241   1.002144
   85       -0.706815   1.015032
   86       -0.647025   1.028288
   87       -0.506776   0.985942
   88       -0.345754   0.482458
   89       -0.260824   0.161359
   90       -0.202790   0.028324
   91       -0.105091  -0.035458
   92       -0.003348  -0.017143
   93        0.050199  -0.007982
   94        0.188408  -0.000472
   95        0.283715  -0.000035
   96        0.348260  -0.000005
   97        0.449190  -0.000000
   98        0.609746  -0.000000
   99        0.627501  -0.000000
  100        0.722347  -0.000000
  101        0.807068  -0.000000
  102        0.866539  -0.000000
  103        0.978824  -0.000000
  104        1.030591  -0.000000
  105        1.105620  -0.000000
  106        1.146857  -0.000000
  107        1.196017  -0.000000
  108        1.235825  -0.000000
  109        1.309099  -0.000000
  110        1.338888  -0.000000
  111        1.416529  -0.000000
  112        1.483803  -0.000000
  113        1.554355  -0.000000
  114        1.664061  -0.000000

  0.3742002E-15  0.9090909E-01  0.3596334E-15  0.6734007E-02
    1      -14.040774   1.000000
    2      -12.808982   1.000000
    3      -12.536759   1.000000
    4      -12.035168   1.000000
    5      -11.628510   1.000000
    6      -11.482675   1.000000
    7      -11.267471   1.000000
    8      -11.198639   1.000000
    9      -10.971839   1.000000
   10      -10.677876   1.000000
   11      -10.579633   1.000000
   12      -10.455930   1.000000
   13      -10.396056   1.000000
   14      -10.297275   1.000000
   15       -9.745502   1.000000
   16       -9.580697   1.000000
   17       -9.204897   1.000000
   18       -9.041822   1.000000
   19       -8.870902   1.000000
   20       -8.592667   1.000000
   21       -8.533290   1.000000
   22       -8.177511   1.000000
   23       -8.165937   1.000000
   24       -8.047993   1.000000
   25       -7.734313   1.000000
   26       -7.608404   1.000000
   27       -7.387253   1.000000
   28       -7.267319   1.000000
   29       -6.738843   1.000000
   30       -6.647988   1.000000
   31       -6.445663   1.000000
   32       -6.360461   1.000000
   33       -6.224821   1.000000
   34       -6.104286   1.000000
   35       -5.980218   1.000000
   36       -5.921949   1.000000
   37       -5.671206   1.000000
   38       -5.563080   1.000000
   39       -5.458190   1.000000
   40       -5.383289   1.000000
   41       -5.261845   1.000000
   42       -5.168829   1.000000
   43       -5.041928   1.000000
   44       -5.018809   1.000000
   45       -4.965760   1.000000
   46       -4.880142   1.000000
   47       -4.808393   1.000000
   48       -4.737052   1.000000
   49       -4.546916   1.000000
   50       -4.491434   1.000000
   51       -4.428133   1.000000
   52       -4.368658   1.000000
   53       -4.256372   1.000000
   54       -4.166133   1.000000
   55       -4.103218   1.000000
   56       -4.034823   1.000000
   57       -3.953543   1.000000
   58       -3.850115   1.000000
   59       -3.791439   1.000000
   60       -3.695796   1.000000
   61       -3.637901   1.000000
   62       -3.563882   1.000000
   63       -3.454982   1.000000
   64       -3.389390   1.000000
   65       -3.306503   1.000000
   66       -3.137033   1.000000
   67       -3.103002   1.000000
   68       -2.947740   1.000000
   69       -2.879959   1.000000
   70       -2.744844   1.000000
   71       -2.610152   1.000000
   72       -2.538234   1.000000
   73       -2.427625   1.000000
   74       -2.293868   1.000000
   75       -2.036087   1.000000
   76       -1.827627   1.000000
   77       -1.802336   1.000000
   78       -1.711869   1.000000
   79       -1.618990   1.000000
   80       -1.522269   1.000000
   81       -1.443178   1.000000
   82       -1.270476   1.000000
   83       -1.205255   1.000000
   84       -0.958052   1.000074
   85       -0.815293   1.002422
   86       -0.616689   1.033881
   87       -0.541284   1.020059
   88       -0.380850   0.629234
   89       -0.271687   0.195439
   90       -0.160716  -0.018566
   91       -0.085895  -0.034233
   92       -0.041107  -0.025656
   93        0.067222  -0.006004
   94        0.175483  -0.000645
   95        0.315959  -0.000013
   96        0.400943  -0.000001
   97        0.442851  -0.000000
   98        0.463696  -0.000000
   99        0.578089  -0.000000
  100        0.608921  -0.000000
  101        0.675960  -0.000000
  102        0.738335  -0.000000
  103        0.885384  -0.000000
  104        0.985545  -0.000000
  105        1.025177  -0.000000
  106        1.072410  -0.000000
  107        1.118183  -0.000000
  108        1.151084  -0.000000
  109        1.245454  -0.000000
  110        1.293336  -0.000000
  111        1.348065  -0.000000
  112        1.468126  -0.000000
  113        1.570254  -0.000000
  114        1.694968  -0.000000

  0.1111111E+00  0.9090909E-01  0.4822234E-15  0.6734007E-02
    1      -13.998473   1.000000
    2      -12.816515   1.000000
    3      -12.671784   1.000000
    4      -11.937483   1.000000
    5      -11.611584   1.000000
    6      -11.493864   1.000000
    7      -11.321654   1.000000
    8      -11.211946   1.000000
    9      -10.939901   1.000000
   10      -10.675235   1.000000
   11      -10.563172   1.000000
   12      -10.451145   1.000000
   13      -10.360357   1.000000
   14      -10.273498   1.000000
   15       -9.734113   1.000000
   16       -9.601198   1.000000
   17       -9.216490   1.000000
   18       -9.015591   1.000000
   19       -8.876797   1.000000
   20       -8.689578   1.000000
   21       -8.534228   1.000000
   22       -8.262068   1.000000
   23       -8.131498   1.000000
   24       -7.998962   1.000000
   25       -7.749133   1.000000
   26       -7.657259   1.000000
   27       -7.458735   1.000000
   28       -7.278356   1.000000
   29       -6.717426   1.000000
   30       -6.596841   1.000000
   31       -6.394645   1.000000
   32       -6.315438   1.000000
   33       -6.179220   1.000000
   34       -6.092218   1.000000
   35       -6.007568   1.000000
   36       -5.886512   1.000000
   37       -5.682387   1.000000
   38       -5.506243   1.000000
   39       -5.442634   1.000000
   40       -5.365024   1.000000
   41       -5.281625   1.000000
   42       -5.182221   1.000000
   43       -5.085389   1.000000
   44       -5.020483   1.000000
   45       -4.911721   1.000000
   46       -4.848117   1.000000
   47       -4.824921   1.000000
   48       -4.699783   1.000000
   49       -4.536177   1.000000
   50       -4.456318   1.000000
   51       -4.432710   1.000000
   52       -4.336981   1.000000
   53       -4.255064   1.000000
   54       -4.192790   1.000000
   55       -4.101726   1.000000
   56       -4.045652   1.000000
   57       -3.943359   1.000000
   58       -3.880779   1.000000
   59       -3.795152   1.000000
   60       -3.709006   1.000000
   61       -3.684674   1.000000
   62       -3.581333   1.000000
   63       -3.523158   1.000000
   64       -3.398698   1.000000
   65       -3.289656   1.000000
   66       -3.127154   1.000000
   67       -3.025492   1.000000
   68       -2.940365   1.000000
   69       -2.888547   1.000000
   70       -2.829007   1.000000
   71       -2.670536   1.000000
   72       -2.520893   1.000000
   73       -2.384438   1.000000
   74       -2.281381   1.000000
   75       -2.156873   1.000000
   76       -1.813800   1.000000
   77       -1.747767   1.000000
   78       -1.724494   1.000000
   79       -1.579736   1.000000
   80       -1.488749   1.000000
   81       -1.377426   1.000000
   82       -1.285128   1.000000
   83       -1.185643   1.000000
   84       -1.009865   1.000016
   85       -0.792035   1.003819
   86       -0.588872   1.035315
   87       -0.545946   1.022952
   88       -0.385271   0.647100
   89       -0.247408   0.123134
   90       -0.171176  -0.010277
   91       -0.093576  -0.034997
   92       -0.030773  -0.023268
   93        0.099500  -0.003325
   94        0.154208  -0.001056
   95        0.275156  -0.000046
   96        0.394462  -0.000001
   97        0.437490  -0.000000
   98        0.485639  -0.000000
   99        0.587246  -0.000000
  100        0.615426  -0.000000
  101        0.689317  -0.000000
  102        0.764237  -0.000000
  103        0.922144  -0.000000
  104        1.002990  -0.000000
  105        1.050981  -0.000000
  106        1.104129  -0.000000
  107        1.133277  -0.000000
  108        1.154982  -0.000000
  109        1.251779  -0.000000
  110        1.306899  -0.000000
  111        1.343489  -0.000000
  112        1.448339  -0.000000
  113        1.518729  -0.000000
  114        1.739840  -0.000000

  0.2222222E+00  0.9090909E-01  0.3065600E-15  0.6734007E-02
    1      -13.913856   1.000000
    2      -12.984819   1.000000
    3      -12.670569   1.000000
    4      -11.878115   1.000000
    5      -11.616737   1.000000
    6      -11.509754   1.000000
    7      -11.352938   1.000000
    8      -11.225626   1.000000
    9      -10.879757   1.000000
   10      -10.667897   1.000000
   11      -10.545573   1.000000
   12      -10.454969   1.000000
   13      -10.291579   1.000000
   14      -10.250195   1.000000
   15       -9.738098   1.000000
   16       -9.596110   1.000000
   17       -9.247260   1.000000
   18       -8.948000   1.000000
   19       -8.894646   1.000000
   20       -8.823949   1.000000
   21       -8.545489   1.000000
   22       -8.385552   1.000000
   23       -8.135565   1.000000
   24       -8.002663   1.000000
   25       -7.760230   1.000000
   26       -7.632501   1.000000
   27       -7.492027   1.000000
   28       -7.297512   1.000000
   29       -6.722759   1.000000
   30       -6.575191   1.000000
   31       -6.381084   1.000000
   32       -6.286817   1.000000
   33       -6.156197   1.000000
   34       -6.023885   1.000000
   35       -5.991678   1.000000
   36       -5.789305   1.000000
   37       -5.634995   1.000000
   38       -5.529476   1.000000
   39       -5.431544   1.000000
   40       -5.353719   1.000000
   41       -5.232731   1.000000
   42       -5.149203   1.000000
   43       -5.106150   1.000000
   44       -5.003012   1.000000
   45       -4.911624   1.000000
   46       -4.828909   1.000000
   47       -4.787764   1.000000
   48       -4.616841   1.000000
   49       -4.553268   1.000000
   50       -4.487567   1.000000
   51       -4.401721   1.000000
   52       -4.341037   1.000000
   53       -4.264081   1.000000
   54       -4.140046   1.000000
   55       -4.109503   1.000000
   56       -4.046201   1.000000
   57       -3.955724   1.000000
   58       -3.899701   1.000000
   59       -3.795128   1.000000
   60       -3.752821   1.000000
   61       -3.708164   1.000000
   62       -3.628239   1.000000
   63       -3.573392   1.000000
   64       -3.414882   1.000000
   65       -3.280849   1.000000
   66       -3.158623   1.000000
   67       -3.044000   1.000000
   68       -2.969818   1.000000
   69       -2.894253   1.000000
   70       -2.823937   1.000000
   71       -2.738270   1.000000
   72       -2.475637   1.000000
   73       -2.366014   1.000000
   74       -2.310845   1.000000
   75       -2.195483   1.000000
   76       -1.835700   1.000000
   77       -1.785344   1.000000
   78       -1.674957   1.000000
   79       -1.577977   1.000000
   80       -1.448982   1.000000
   81       -1.293406   1.000000
   82       -1.219647   1.000000
   83       -1.133042   1.000000
   84       -1.046279   1.000005
   85       -0.789100   1.004036
   86       -0.617887   1.033718
   87       -0.545976   1.022969
   88       -0.363865   0.558929
   89       -0.246827   0.121579
   90       -0.152919  -0.023489