   57   57   85    1
  0.1334943E+02  0.6088057E-09  0.6088057E-09  0.2372246E-08  0.5000000E-15
   1.0000000000000000E-004
  CAR 
 Name                                    
    203     41    132

  0.3742002E-15  0.3742002E-15  0.1262379E-14  0.1234568E-01
    1      -11.576596   1.000000
    2      -10.995668   1.000000
    3      -10.222162   1.000000
    4       -9.392250   1.000000
    5       -8.775279   1.000000
    6       -8.696960   1.000000
    7       -8.304141   1.000000
    8       -8.126866   1.000000
    9       -7.992141   1.000000
   10       -7.891141   1.000000
   11       -7.809915   1.000000
   12       -7.773040   1.000000
   13       -7.735493   1.000000
   14       -7.728626   1.000000
   15       -7.489001   1.000000
   16       -7.410457   1.000000
   17       -7.371966   1.000000
   18       -7.312038   1.000000
   19       -7.206473   1.000000
   20       -7.065439   1.000000
   21       -6.964120   1.000000
   22       -6.836704   1.000000
   23       -6.194192   1.000000
   24       -6.161428   1.000000
   25       -6.077029   1.000000
   26       -6.022990   1.000000
   27       -5.947579   1.000000
   28       -5.936402   1.000000
   29       -5.692311   1.000000
   30       -5.564139   1.000000
   31       -5.241486   1.000000
   32       -4.784600   1.000000
   33       -4.668258   1.000000
   34       -4.658505   1.000000
   35       -4.395790   1.000000
   36       -4.329102   1.000000
   37       -4.231276   1.000000
   38       -3.706360   1.000000
   39       -3.327583   1.000000
   40       -3.196181   1.000000
   41       -3.109970   1.000000
   42       -3.019559   1.000000
   43       -2.755895   1.000000
   44       -2.691613   1.000000
   45       -2.633910   1.000000
   46       -2.535353   1.000000
   47       -2.498795   1.000000
   48       -2.322863   1.000000
   49       -2.310547   1.000000
   50       -2.299184   1.000000
   51       -2.114582   1.000000
   52       -2.043959   1.000000
   53       -1.992836   1.000000
   54       -1.926975   1.000000
   55       -1.905507   1.000000
   56       -1.875252   1.000000
   57       -1.795660   1.000000
   58       -1.783588   1.000000
   59       -1.742718   1.000000
   60       -1.732432   1.000000
   61       -1.523146   1.000000
   62       -1.358266   1.000000
   63       -1.338814   1.000000
   64       -1.276110   1.000000
   65       -1.227861   1.000000
   66       -1.180196   1.000000
   67       -1.152826   1.000000
   68       -0.932895   1.000000
   69       -0.879868   1.000000
   70       -0.851957   1.000000
   71       -0.755194   1.000000
   72       -0.717838   1.000000
   73       -0.682369   1.000000
   74       -0.670645   1.000000
   75       -0.479246   1.000000
   76       -0.349470   1.000000
   77       -0.171814   1.000000
   78       -0.168424   1.000000
   79       -0.162452   1.000000
   80       -0.064679   1.000000
   81        0.279751   1.000000
   82        0.492412   1.000000
   83        0.503612   1.000000
   84        0.655242   1.000000
   85        0.678379   1.000000
   86        1.000652   1.000000
   87        1.106616   1.000000
   88        1.143616   1.000000
   89        1.232639   1.000000
   90        1.278362   1.000000
   91        1.351515   1.000000
   92        1.428571   1.000000
   93        1.434274   1.000000
   94        1.465543   1.000000
   95        1.526103   1.000000
   96        1.538374   1.000000
   97        1.879127   1.000002
   98        2.101462   1.000963
   99        2.299868   1.025431
  100        2.577146   0.635494
  101        2.664475   0.277352
  102        2.784535  -0.006726
  103        2.889813  -0.031740
  104        3.018746  -0.006882
  105        3.085849  -0.001938
  106        3.176453  -0.000229
  107        3.192402  -0.000150
  108        3.312483  -0.000004
  109        3.516813  -0.000000
  110        3.534406  -0.000000
  111        3.572155  -0.000000
  112        3.583794  -0.000000
  113        3.664783  -0.000000
  114        3.751239  -0.000000
  115        3.757449  -0.000000
  116        3.822933  -0.000000
  117        3.824012  -0.000000
  118        3.852207  -0.000000
  119        3.922356  -0.000000
  120        3.946944  -0.000000
  121        4.021871  -0.000000
  122        4.038563  -0.000000
  123        4.101769  -0.000000
  124        4.138100  -0.000000
  125        4.162750  -0.000000
  126        4.246092  -0.000000
  127        4.297728  -0.000000
  128        4.326155  -0.000000
  129        4.445268  -0.000000
  130        4.508628  -0.000000
  131        4.584663  -0.000000
  132        4.721494  -0.000000

  0.1111111E+00  0.3857958E-15  0.1262379E-14  0.2469136E-01
    1      -11.519305   1.000000
    2      -10.942941   1.000000
    3      -10.179934   1.000000
    4       -9.357766   1.000000
    5       -8.740906   1.000000
    6       -8.715793   1.000000
    7       -8.461575   1.000000
    8       -8.322530   1.000000
    9       -8.153662   1.000000
   10       -8.061626   1.000000
   11       -8.031625   1.000000
   12       -7.993675   1.000000
   13       -7.855385   1.000000
   14       -7.818314   1.000000
   15       -7.618962   1.000000
   16       -7.249747   1.000000
   17       -7.175174   1.000000
   18       -7.155079   1.000000
   19       -6.954960   1.000000
   20       -6.868742   1.000000
   21       -6.805501   1.000000
   22       -6.630092   1.000000
   23       -6.225095   1.000000
   24       -6.179747   1.000000
   25       -6.069798   1.000000
   26       -5.973289   1.000000
   27       -5.913253   1.000000
   28       -5.797365   1.000000
   29       -5.698765   1.000000
   30       -5.473015   1.000000
   31       -5.173670   1.000000
   32       -4.672687   1.000000
   33       -4.630871   1.000000
   34       -4.472322   1.000000
   35       -4.353326   1.000000
   36       -4.296348   1.000000
   37       -4.010781   1.000000
   38       -3.673256   1.000000
   39       -3.297448   1.000000
   40       -3.237704   1.000000
   41       -3.154837   1.000000
   42       -3.004420   1.000000
   43       -2.838661   1.000000
   44       -2.730674   1.000000
   45       -2.700547   1.000000
   46       -2.653970   1.000000
   47       -2.580380   1.000000
   48       -2.474223   1.000000
   49       -2.300485   1.000000
   50       -2.274421   1.000000
   51       -2.139464   1.000000
   52       -2.092730   1.000000
   53       -1.953304   1.000000
   54       -1.929546   1.000000
   55       -1.888594   1.000000
   56       -1.874816   1.000000
   57       -1.837530   1.000000
   58       -1.762527   1.000000
   59       -1.734192   1.000000
   60       -1.709412   1.000000
   61       -1.533909   1.000000
   62       -1.418862   1.000000
   63       -1.387647   1.000000
   64       -1.335791   1.000000
   65       -1.292389   1.000000
   66       -1.204001   1.000000
   67       -1.171717   1.000000
   68       -1.045925   1.000000
   69       -0.961295   1.000000
   70       -0.888849   1.000000
   71       -0.779436   1.000000
   72       -0.749985   1.000000
   73       -0.691888   1.000000
   74       -0.596662   1.000000
   75       -0.480244   1.000000
   76       -0.368025   1.000000
   77       -0.274228   1.000000
   78       -0.220110   1.000000
   79       -0.151956   1.000000
   80       -0.022988   1.000000
   81        0.063179   1.000000
   82        0.242801   1.000000
   83        0.464198   1.000000
   84        0.590552   1.000000
   85        0.720187   1.000000
   86        0.838649   1.000000
   87        0.861731   1.000000
   88        1.080485   1.000000
   89        1.157858   1.000000
   90        1.267841   1.000000
   91        1.315053   1.000000
   92        1.360008   1.000000
   93        1.389416   1.000000
   94        1.421144   1.000000
   95        1.617661   1.000000
   96        1.684192   1.000000
   97        1.998823   1.000069
   98        2.337845   1.033161
   99        2.446494   0.993961
  100        2.543138   0.764883
  101        2.678205   0.227907
  102        2.739391   0.059301
  103        2.799828  -0.019260
  104        2.890581  -0.031599
  105        2.955871  -0.017210
  106        3.226448  -0.000058
  107        3.344661  -0.000001
  108        3.394919  -0.000000
  109        3.488428  -0.000000
  110        3.535410  -0.000000
  111        3.561046  -0.000000
  112        3.587170  -0.000000
  113        3.666485  -0.000000
  114        3.709911  -0.000000
  115        3.726522  -0.000000
  116        3.790879  -0.000000
  117        3.820608  -0.000000
  118        3.835629  -0.000000
  119        3.898717  -0.000000
  120        3.913750  -0.000000
  121        3.973663  -0.000000
  122        4.031652  -0.000000
  123        4.073905  -0.000000
  124        4.105783  -0.000000
  125        4.120746  -0.000000
  126        4.162750  -0.000000
  127        4.248082  -0.000000
  128        4.323682  -0.000000
  129        4.412271  -0.000000
  130        4.522690  -0.000000
  131        4.621911  -0.000000
  132        4.681485  -0.000000

  0.2222222E+00  0.3935346E-15  0.1262379E-14  0.2469136E-01
    1      -11.349596   1.000000
    2      -10.787135   1.000000
    3      -10.056324   1.000000
    4       -9.256698   1.000000
    5       -9.039550   1.000000
    6       -8.826538   1.000000
    7       -8.759413   1.000000
    8       -8.632775   1.000000
    9       -8.311731   1.000000
   10       -8.250530   1.000000
   11       -8.220669   1.000000
   12       -8.076697   1.000000
   13       -8.064456   1.000000
   14       -8.004012   1.000000
   15       -7.879144   1.000000
   16       -7.221495   1.000000
   17       -7.135605   1.000000
   18       -6.843538   1.000000
   19       -6.823634   1.000000
   20       -6.582916   1.000000
   21       -6.532215   1.000000
   22       -6.239906   1.000000
   23       -6.096466   1.000000
   24       -5.990234   1.000000
   25       -5.941619   1.000000
   26       -5.842898   1.000000
   27       -5.755776   1.000000
   28       -5.671965   1.000000
   29       -5.294474   1.000000
   30       -5.240727   1.000000
   31       -4.943595   1.000000
   32       -4.505474   1.000000
   33       -4.479140   1.000000
   34       -4.278546   1.000000
   35       -4.153827   1.000000
   36       -3.957792   1.000000
   37       -3.623605   1.000000
   38       -3.568440   1.000000
   39       -3.425895   1.000000
   40       -3.339273   1.000000
   41       -3.237353   1.000000
   42       -3.203900   1.000000
   43       -3.143905   1.000000
   44       -2.981799   1.000000
   45       -2.918958   1.000000
   46       -2.645322   1.000000
   47       -2.571043   1.000000
   48       -2.536367   1.000000
   49       -2.289597   1.000000
   50       -2.241644   1.000000
   51       -2.215753   1.000000
   52       -2.156381   1.000000
   53       -2.087149   1.000000
   54       -2.014518   1.000000
   55       -1.942646   1.000000
   56       -1.935796   1.000000
   57       -1.853708   1.000000
   58       -1.805780   1.000000
   59       -1.789276   1.000000
   60       -1.659162   1.000000
   61       -1.588045   1.000000
   62       -1.527545   1.000000
   63       -1.488816   1.000000
   64       -1.462411   1.000000
   65       -1.400662   1.000000
   66       -1.321636   1.000000
   67       -1.258528   1.000000
   68       -1.189971   1.000000
   69       -1.068090   1.000000
   70       -1.011773   1.000000
   71       -0.983162   1.000000
   72       -0.813530   1.000000
   73       -0.767963   1.000000
   74       -0.676864   1.000000
   75       -0.520267   1.000000
   76       -0.484498   1.000000
   77       -0.381773   1.000000
   78       -0.298642   1.000000
   79       -0.201680   1.000000
   80       -0.146647   1.000000
   81        0.017782   1.000000
   82        0.122483   1.000000
   83        0.311750   1.000000
   84        0.447714   1.000000
   85        0.586396   1.000000
   86        0.659943   1.000000
   87        0.789932   1.000000
   88        0.893159   1.000000
   89        0.945416   1.000000
   90        1.146289   1.000000
   91        1.198162   1.000000
   92        1.299718   1.000000
   93        1.329979   1.000000
   94        1.432863   1.000000
   95        1.653741   1.000000
   96        1.830862   1.000000
   97        1.914576   1.000005
   98        2.261492   1.016809
   99        2.338205   1.033216
  100        2.562127   0.694885
  101        2.697434   0.165233
  102        2.768243   0.011758
  103        2.934722  -0.021894
  104        3.022597  -0.006448
  105        3.095739  -0.001571
  106        3.239588  -0.000039
  107        3.276599  -0.000013
  108        3.325290  -0.000003
  109        3.352278  -0.000001
  110        3.384303  -0.000000
  111        3.416863  -0.000000
  112        3.542066  -0.000000
  113        3.597145  -0.000000
  114        3.655560  -0.000000
  115        3.686988  -0.000000
  116        3.731292  -0.000000
  117        3.754800  -0.000000
  118        3.785598  -0.000000
  119        3.830143  -0.000000
  120        3.897333  -0.000000
  121        3.937884  -0.000000
  122        3.983714  -0.000000
  123        4.014957  -0.000000
  124        4.119958  -0.000000
  125        4.176130  -0.000000
  126        4.202955  -0.000000
  127        4.267609  -0.000000
  128        4.295669  -0.000000
  129        4.347858  -0.000000
  130        4.488016  -0.000000
  131        4.579975  -0.000000
  132        4.769517  -0.000000

  0.3333333E+00  0.3939838E-15  0.1262379E-14  0.2469136E-01
    1      -11.074838   1.000000
    2      -10.535759   1.000000
    3       -9.860770   1.000000
    4       -9.640778   1.000000
    5       -9.286964   1.000000
    6       -9.096312   1.000000
    7       -9.007007   1.000000
    8       -8.464188   1.000000
    9       -8.416466   1.000000
   10       -8.383657   1.000000
   11       -8.371649   1.000000
   12       -8.219839   1.000000
   13       -8.194784   1.000000
   14       -8.130627   1.000000
   15       -8.040681   1.000000
   16       -7.496886   1.000000
   17       -7.294429   1.000000
   18       -6.663516   1.000000
   19       -6.606754   1.000000
   20       -6.344852   1.000000
   21       -6.128575   1.000000
   22       -6.091920   1.000000
   23       -5.938197   1.000000
   24       -5.886474   1.000000
   25       -5.869007   1.000000
   26       -5.645700   1.000000
   27       -5.183299   1.000000
   28       -5.025038   1.000000
   29       -4.921034   1.000000
   30       -4.733224   1.000000
   31       -4.582690   1.000000
   32       -4.285491   1.000000
   33       -4.207952   1.000000
   34       -4.145243   1.000000
   35       -3.936673   1.000000
   36       -3.825409   1.000000
   37       -3.734276   1.000000
   38       -3.673296   1.000000
   39       -3.666267   1.000000
   40       -3.562622   1.000000
   41       -3.504365   1.000000
   42       -3.409692   1.000000
   43       -3.175680   1.000000
   44       -2.952091   1.000000
   45       -2.815043   1.000000
   46       -2.768602   1.000000
   47       -2.619872   1.000000
   48       -2.539996   1.000000
   49       -2.473380   1.000000
   50       -2.389583   1.000000
   51       -2.290296   1.000000
   52       -2.243053   1.000000
   53       -2.174380   1.000000
   54       -2.139460   1.000000
   55       -2.084652   1.000000
   56       -2.036907   1.000000
   57       -1.984620   1.000000
   58       -1.892741   1.000000
   59       -1.868194   1.000000
   60       -1.801188   1.000000
   61       -1.705669   1.000000
   62       -1.642804   1.000000
   63       -1.571680   1.000000
   64       -1.512783   1.000000
   65       -1.499645   1.000000
   66       -1.428402   1.000000
   67       -1.341612   1.000000
   68       -1.261488   1.000000
   69       -1.206823   1.000000
   70       -1.171251   1.000000
   71       -1.064711   1.000000
   72       -0.927642   1.000000
   73       -0.816458   1.000000
   74       -0.746159   1.000000
   75       -0.639804   1.000000
   76       -0.586892   1.000000
   77       -0.489934   1.000000
   78       -0.409847   1.000000
   79       -0.317153   1.000000
   80       -0.130513   1.000000
   81       -0.105444   1.000000
   82        0.113516   1.000000
   83        0.192157   1.000000
   84        0.389898   1.000000
   85        0.576729   1.000000
   86        0.615383   1.000000
   87        0.710472   1.000000
   88        0.780283   1.000000
   89        0.958290   1.000000
   90        1.005512   1.000000
   91        1.120372   1.000000
   92        1.212640   1.000000
   93        1.287821   1.000000
   94        1.360780   1.000000
   95        1.524706   1.000000
   96        1.700149   1.000000
   97        2.036688   1.000195
   98        2.073412   1.000496
   99        2.170766   1.004061
  100        2.466672   0.964944
  101        2.597838   0.549836
  102        2.713903   0.118416
  103        2.798818  -0.018564
  104        2.879970  -0.033382
  105        2.979705  -0.012573
  106        3.038060  -0.004918
  107        3.155453  -0.000392
  108        3.189877  -0.000161
  109        3.249037  -0.000030
  110        3.324762  -0.000003
  111        3.391938  -0.000000
  112        3.430712  -0.000000
  113        3.486796  -0.000000
  114        3.555948  -0.000000
  115        3.601929  -0.000000
  116        3.687505  -0.000000
  117        3.779142  -0.000000
  118        3.815111  -0.000000
  119        3.831133  -0.000000
  120        3.895636  -0.000000
  121        3.949615  -0.000000
  122        4.033969  -0.000000
  123        4.107263  -0.000000
  124        4.123899  -0.000000
  125        4.183850  -0.000000
  126        4.228832  -0.000000
  127        4.257921  -0.000000
  128        4.407692  -0.000000
  129        4.445427  -0.000000
  130        4.558332  -0.000000
  131        4.621681  -0.000000
  132        4.662063  -0.000000

  0.4444444E+00  0.3881204E-15  0.1262379E-14  0.2469136E-01
    1      -10.721406   1.000000
    2      -10.209923   1.000000
    3      -10.160466   1.000000
    4       -9.745049   1.000000
    5       -9.609905   1.000000
    6       -9.301928   1.000000
    7       -8.890838   1.000000
    8       -8.503263   1.000000
    9       -8.464048   1.000000
   10       -8.458133   1.000000
   11       -8.438134   1.000000
   12       -8.275098   1.000000
   13       -8.202576   1.000000
   14       -8.184241   1.000000
   15       -8.034785   1.000000
   16       -7.870186   1.000000
   17       -7.334077   1.000000
   18       -6.616481   1.000000
   19       -6.495165   1.000000
   20       -6.361931   1.000000
   21       -5.963474   1.000000
   22       -5.822917   1.000000
   23       -5.758573   1.000000
   24       -5.713009   1.000000
   25       -5.641589   1.000000
   26       -5.532855   1.000000
   27       -4.664221   1.000000
   28       -4.552749   1.000000
   29       -4.373100   1.000000
   30       -4.309185   1.000000
   31       -4.267706   1.000000
   32       -4.187081   1.000000
   33       -4.118681   1.000000
   34       -4.059208   1.000000
   35       -3.988016   1.000000
   36       -3.946020   1.000000
   37       -3.892723   1.000000
   38       -3.840474   1.000000
   39       -3.781958   1.000000
   40       -3.660535   1.000000
   41       -3.618435   1.000000
   42       -3.540403   1.000000
   43       -3.414201   1.000000
   44       -3.323416   1.000000
   45       -2.894224   1.000000
   46       -2.800371   1.000000
   47       -2.644925   1.000000
   48       -2.614069   1.000000
   49       -2.540137   1.000000
   50       -2.451431   1.000000
   51       -2.376741   1.000000
   52       -2.255779   1.000000
   53       -2.210145   1.000000
   54       -2.173693   1.000000
   55       -2.127473   1.000000
   56       -2.086561   1.000000
   57       -2.046104   1.000000
   58       -1.998165   1.000000
   59       -1.940031   1.000000
   60       -1.858606   1.000000
   61       -1.765176   1.000000
   62       -1.690905   1.000000
   63       -1.623515   1.000000
   64       -1.591392   1.000000
   65       -1.552901   1.000000
   66       -1.471066   1.000000
   67       -1.447069   1.000000
   68       -1.272490   1.000000
   69       -1.225942   1.000000
   70       -1.179002   1.000000
   71       -1.109543   1.000000
   72       -1.050070   1.000000
   73       -0.811686   1.000000
   74       -0.758457   1.000000
   75       -0.710286   1.000000
   76       -0.661244   1.000000
   77       -0.607033   1.000000
   78       -0.483021   1.000000
   79       -0.400061   1.000000
   80       -0.219515   1.000000
   81       -0.068235   1.000000
   82        0.009097   1.000000
   83        0.173385   1.000000
   84        0.437051   1.000000
   85        0.527459   1.000000
   86        0.624081   1.000000
   87        0.661853   1.000000
   88        0.795696   1.000000
   89        0.862417   1.000000
   90        0.988239   1.000000
   91        1.059083   1.000000
   92        1.173730   1.000000
   93        1.280009   1.000000
   94        1.383254   1.000000
   95        1.552615   1.000000
   96        1.707159   1.000000
   97        1.991473   1.000056
   98        2.116026   1.001334
   99        2.188106   1.005560
  100        2.214207   1.008601
  101        2.304735   1.026546
  102        2.524689   0.826013
  103        2.600817   0.537286
  104        2.733857   0.070745
  105        2.820287  -0.029807
  106        2.926954  -0.023687
  107        2.985612  -0.011556
  108        3.106992  -0.001228
  109        3.195514  -0.000138
  110        3.216222  -0.000078
  111        3.304046  -0.000005
  112        3.323767  -0.000003
  113        3.404813  -0.000000
  114        3.483795  -0.000000
  115        3.524192  -0.000000
  116        3.631019  -0.000000
  117        3.726763  -0.000000
  118        3.775490  -0.000000
  119        3.815340  -0.000000
  120        3.896857  -0.000000
  121        3.991406  -0.000000
  122        4.046886  -0.000000
  123        4.140691  -0.000000
  124        4.226510  -0.000000
  125        4.269940  -0.000000
  126        4.335563  -0.000000
  127        4.419551  -0.000000
  128        4.477118  -0.000000
  129        4.523247  -0.000000
  130        4.669077  -0.000000
  131        4.737822  -0.000000
  132        4.845522  -0.000000

  0.3742002E-15  0.1111111E+00  0.1262379E-14  0.2469136E-01
    1      -11.519303   1.000000
    2      -10.942940   1.000000
    3      -10.179935   1.000000
    4       -9.357759   1.000000
    5       -8.740900   1.000000
    6       -8.715809   1.000000
    7       -8.461620   1.000000
    8       -8.322518   1.000000
    9       -8.153610   1.000000
   10       -8.061658   1.000000
   11       -8.031631   1.000000
   12       -7.993648   1.000000
   13       -7.855425   1.000000
   14       -7.818162   1.000000
   15       -7.619176   1.000000
   16       -7.249768   1.000000
   17       -7.174908   1.000000
   18       -7.155225   1.000000
   19       -6.955002   1.000000
   20       -6.868779   1.000000
   21       -6.805256   1.000000
   22       -6.630093   1.000000
   23       -6.225133   1.000000
   24       -6.179687   1.000000
   25       -6.069906   1.000000
   26       -5.973275   1.000000
   27       -5.913169   1.000000
   28       -5.797578   1.000000
   29       -5.698763   1.000000
   30       -5.473480   1.000000
   31       -5.173373   1.000000
   32       -4.672800   1.000000
   33       -4.630899   1.000000
   34       -4.472190   1.000000
   35       -4.352287   1.000000
   36       -4.296865   1.000000
   37       -4.011080   1.000000
   38       -3.673251   1.000000
   39       -3.297541   1.000000
   40       -3.237670   1.000000
   41       -3.154599   1.000000
   42       -3.004462   1.000000
   43       -2.838692   1.000000
   44       -2.729806   1.000000
   45       -2.701514   1.000000
   46       -2.654112   1.000000
   47       -2.580497   1.000000
   48       -2.473765   1.000000
   49       -2.301037   1.000000
   50       -2.274402   1.000000
   51       -2.138761   1.000000
   52       -2.093274   1.000000
   53       -1.952813   1.000000
   54       -1.930304   1.000000
   55       -1.887652   1.000000
   56       -1.875614   1.000000
   57       -1.837351   1.000000
   58       -1.761703   1.000000
   59       -1.734501   1.000000
   60       -1.709643   1.000000
   61       -1.533912   1.000000
   62       -1.418908   1.000000
   63       -1.387554   1.000000
   64       -1.336405   1.000000
   65       -1.291168   1.000000
   66       -1.204536   1.000000
   67       -1.172259   1.000000
   68       -1.045163   1.000000
   69       -0.961483   1.000000
   70       -0.888836   1.000000
   71       -0.779355   1.000000
   72       -0.750329   1.000000
   73       -0.691819   1.000000
   74       -0.597302   1.000000
   75       -0.479859   1.000000
   76       -0.368248   1.000000
   77       -0.274757   1.000000
   78       -0.219343   1.000000
   79       -0.152221   1.000000
   80       -0.023016   1.000000
   81        0.063503   1.000000
   82        0.242712   1.000000
   83        0.463872   1.000000
   84        0.590753   1.000000
   85        0.720474   1.000000
   86        0.838371   1.000000
   87        0.861905   1.000000
   88        1.080518   1.000000
   89        1.157521   1.000000
   90        1.270198   1.000000
   91        1.313224   1.000000
   92        1.359845   1.000000
   93        1.389358   1.000000
   94        1.421138   1.000000
   95        1.617781   1.000000
   96        1.684223   1.000000
   97        1.998551   1.000068
   98        2.338261   1.033225
   99        2.445824   0.994767
  100        2.543423   0.763881
  101        2.678291   0.227608
  102        2.740408   0.057282
  103        2.798383  -0.018258
  104        2.889384  -0.031819
  105        2.957699  -0.016827
  106        3.226342  -0.000058
  107        3.345003  -0.000001
  108        3.394733  -0.000000
  109        3.488479  -0.000000
  110        3.535238  -0.000000
  111        3.560833  -0.000000
  112        3.587398  -0.000000
  113        3.666612  -0.000000
  114        3.709787  -0.000000
  115        3.726621  -0.000000
  116        3.791170  -0.000000
  117        3.820678  -0.000000
  118        3.835331  -0.000000
  119        3.898670  -0.000000
  120        3.913896  -0.000000
  121        3.973659  -0.000000
  122        4.031306  -0.000000
  123        4.074229  -0.000000
  124        4.105026  -0.000000
  125        4.121224  -0.000000
  126        4.162855  -0.000000
  127        4.248034  -0.000000
  128        4.323770  -0.000000
  129        4.412742  -0.000000
  130        4.521701  -0.000000
  131        4.622430  -0.000000
  132        4.681412  -0.000000

  0.1111111E+00  0.1111111E+00  0.1262379E-14  0.2469136E-01
    1      -11.405119   1.000000
    2      -10.838074   1.000000
    3      -10.095767   1.000000
    4       -9.289509   1.000000
    5       -8.786754   1.000000
    6       -8.751836   1.000000
    7       -8.669095   1.000000
    8       -8.581332   1.000000
    9       -8.531438   1.000000
   10       -8.336336   1.000000
   11       -8.289115   1.000000
   12       -8.044011   1.000000
   13       -7.858142   1.000000
   14       -7.830755   1.000000
   15       -7.440585   1.000000
   16       -7.440548   1.000000
   17       -7.184915   1.000000
   18       -6.986555   1.000000
   19       -6.913051   1.000000
   20       -6.802769   1.000000
   21       -6.371695   1.000000
   22       -6.256011   1.000000
   23       -6.198721   1.000000
   24       -6.046568   1.000000
   25       -5.924658   1.000000
   26       -5.892785   1.000000
   27       -5.731423   1.000000
   28       -5.688382   1.000000
   29       -5.457051   1.000000
   30       -5.452043   1.000000
   31       -5.147314   1.000000
   32       -4.768955   1.000000
   33       -4.294891   1.000000
   34       -4.223777   1.000000
   35       -4.194427   1.000000
   36       -4.108810   1.000000
   37       -3.740315   1.000000
   38       -3.613530   1.000000
   39       -3.408458   1.000000
   40       -3.346962   1.000000
   41       -3.234380   1.000000
   42       -3.175214   1.000000
   43       -2.939949   1.000000
   44       -2.923729   1.000000
   45       -2.732912   1.000000
   46       -2.644484   1.000000
   47       -2.527533   1.000000
   48       -2.483412   1.000000
   49       -2.367061   1.000000
   50       -2.327425   1.000000
   51       -2.152413   1.000000
   52       -2.122960   1.000000
   53       -2.114812   1.000000
   54       -1.909009   1.000000
   55       -1.906331   1.000000
   56       -1.864472   1.000000
   57       -1.850807   1.000000
   58       -1.833957   1.000000
   59       -1.785034   1.000000
   60       -1.640021   1.000000
   61       -1.637203   1.000000
   62       -1.463839   1.000000
   63       -1.459318   1.000000
   64       -1.412741   1.000000
   65       -1.344854   1.000000
   66       -1.278688   1.000000
   67       -1.218681   1.000000
   68       -1.141911   1.000000
   69       -1.097979   1.000000
   70       -0.984193   1.000000
   71       -0.844785   1.000000
   72       -0.784935   1.000000
   73       -0.741816   1.000000
   74       -0.719505   1.000000
   75       -0.604599   1.000000
   76       -0.445181   1.000000
   77       -0.355467   1.000000
   78       -0.259886   1.000000
   79       -0.167689   1.000000
   80       -0.021860   1.000000
   81       -0.004618   1.000000
   82        0.156702   1.000000
   83        0.298016   1.000000
   84        0.472307   1.000000
   85        0.501237   1.000000
   86        0.691993   1.000000
   87        0.834424   1.000000
   88        0.969821   1.000000
   89        1.163084   1.000000
   90        1.223863   1.000000
   91        1.266451   1.000000
   92        1.274579   1.000000
   93        1.326361   1.000000
   94        1.388027   1.000000
   95        1.513915   1.000000
   96        1.799740   1.000000
   97        2.046227   1.000250
   98        2.313102   1.028417