 running on   54 total cores
 distrk:  each k-point on   54 cores,    1 groups
 distr:  one band on    9 cores,    6 groups
 using from now: INCAR     
 vasp.5.4.4.18Apr17-6-g9f103f2a35 (build Dec  7 2020 12:43:57) complex           
 POSCAR found type information on POSCAR  Mo V  B  H 
 POSCAR found :  4 types and      57 ions
 scaLAPACK will be used
 LDA part: xc-table for Pade appr. of Perdew
 POSCAR, INCAR and KPOINTS ok, starting setup
 resort distribution
 resort distribution
 resort distribution
 resort distribution
 resort distribution
 resort distribution
 resort distribution
 resort distribution
 resort distribution
 resort distribution
 resort distribution
 resort distribution
 resort distribution
 resort distribution
 resort distribution
 resort distribution
 resort distribution
 resort distribution
 resort distribution
 resort distribution
 resort distribution
 resort distribution
 resort distribution
 resort distribution
 resort distribution
 resort distribution
 resort distribution
 resort distribution
 resort distribution
 resort distribution
 resort distribution
 resort distribution
 resort distribution
 resort distribution
 resort distribution
 resort distribution
 resort distribution
 resort distribution
 resort distribution
 resort distribution
 resort distribution
 resort distribution
 resort distribution
 resort distribution
 resort distribution
 resort distribution
 resort distribution
 resort distribution
 resort distribution
 resort distribution
 resort distribution
 resort distribution
 resort distribution
 resort distribution
 FFT: planning ...
 WAVECAR not read
 augmentation electrons   203.02469681990124     
 soft         electrons   0.0000000000000000     
 augmentation electrons   203.02469681990124     
 soft         electrons   0.0000000000000000     
 augmentation electrons   203.02469681990124     
 soft         electrons   0.0000000000000000     
 augmentation electrons   203.02469681990124     
 soft         electrons   0.0000000000000000     
 augmentation electrons   203.02469681990124     
 soft         electrons   0.0000000000000000     
 augmentation electrons   203.02469681990124     
 soft         electrons   0.0000000000000000     
 augmentation electrons   203.02469681990124     
 soft         electrons   0.0000000000000000     
 augmentation electrons   203.02469681990124     
 soft         electrons   0.0000000000000000     
 augmentation electrons   203.02469681990124     
 soft         electrons   0.0000000000000000     
 augmentation electrons   203.02469681990124     
 soft         electrons   0.0000000000000000     
 augmentation electrons   203.02469681990124     
 soft         electrons   0.0000000000000000     
 augmentation electrons   203.02469681990124     
 soft         electrons   0.0000000000000000     
 augmentation electrons   203.02469681990124     
 soft         electrons   0.0000000000000000     
 augmentation electrons   203.02469681990124     
 soft         electrons   0.0000000000000000     
 augmentation electrons   203.02469681990124     
 soft         electrons   0.0000000000000000     
 augmentation electrons   203.02469681990124     
 soft         electrons   0.0000000000000000     
 augmentation electrons   203.02469681990124     
 soft         electrons   0.0000000000000000     
 augmentation electrons   203.02469681990124     
 soft         electrons   0.0000000000000000     
 augmentation electrons   203.02469681990124     
 soft         electrons   0.0000000000000000     
 augmentation electrons   203.02469681990124     
 soft         electrons   0.0000000000000000     
 augmentation electrons   203.02469681990124     
 soft         electrons   0.0000000000000000     
 augmentation electrons   203.02469681990124     
 soft         electrons   0.0000000000000000     
 augmentation electrons   203.02469681990124     
 soft         electrons   0.0000000000000000     
 augmentation electrons   203.02469681990124     
 soft         electrons   0.0000000000000000     
 augmentation electrons   203.02469681990124     
 soft         electrons   0.0000000000000000     
 augmentation electrons   203.02469681990124     
 soft         electrons   0.0000000000000000     
 augmentation electrons   203.02469681990124     
 soft         electrons   0.0000000000000000     
 augmentation electrons   203.02469681990124     
 soft         electrons   0.0000000000000000     
 augmentation electrons   203.02469681990124     
 soft         electrons   0.0000000000000000     
 augmentation electrons   203.02469681990124     
 soft         electrons   0.0000000000000000     
 augmentation electrons   203.02469681990124     
 soft         electrons   0.0000000000000000     
 augmentation electrons   203.02469681990124     
 soft         electrons   0.0000000000000000     
 augmentation electrons   203.02469681990124     
 soft         electrons   0.0000000000000000     
 augmentation electrons   203.02469681990124     
 soft         electrons   0.0000000000000000     
 augmentation electrons   203.02469681990124     
 soft         electrons   0.0000000000000000     
 augmentation electrons   203.02469681990124     
 soft         electrons   0.0000000000000000     
 augmentation electrons   203.02469681990124     
 soft         electrons   0.0000000000000000     
 augmentation electrons   203.02469681990124     
 soft         electrons   0.0000000000000000     
 augmentation electrons   203.02469681990124     
 soft         electrons   0.0000000000000000     
 augmentation electrons   203.02469681990124     
 soft         electrons   0.0000000000000000     
 augmentation electrons   203.02469681990124     
 soft         electrons   0.0000000000000000     
 augmentation electrons   203.02469681990124     
 soft         electrons   0.0000000000000000     
 augmentation electrons   203.02469681990124     
 soft         electrons   0.0000000000000000     
 augmentation electrons   203.02469681990124     
 soft         electrons   0.0000000000000000     
 augmentation electrons   203.02469681990124     
 soft         electrons   0.0000000000000000     
 augmentation electrons   203.02469681990124     
 soft         electrons   0.0000000000000000     
 augmentation electrons   203.02469681990124     
 soft         electrons   0.0000000000000000     
 augmentation electrons   203.02469681990124     
 soft         electrons   0.0000000000000000     
 augmentation electrons   203.02469681990124     
 soft         electrons   0.0000000000000000     
 augmentation electrons   203.02469681990124     
 soft         electrons   0.0000000000000000     
 augmentation electrons   203.02469681990124     
 soft         electrons   0.0000000000000000     
 augmentation electrons   203.02469681990124     
 soft         electrons   0.0000000000000000     
 augmentation electrons   203.02469681990124     
 soft         electrons   0.0000000000000000     
 augmentation electrons   203.02469681990124     
 soft         electrons   0.0000000000000000     
 total        electrons   203.02469681990124     
 total        electrons   203.02469681990124     
 total        electrons   203.02469681990124     
 total        electrons   203.02469681990124     
 total        electrons   203.02469681990124     
 total        electrons   203.02469681990124     
 total        electrons   203.02469681990124     
 total        electrons   203.02469681990124     
 total        electrons   203.02469681990124     
 total        electrons   203.02469681990124     
 total        electrons   203.02469681990124     
 total        electrons   203.02469681990124     
 total        electrons   203.02469681990124     
 total        electrons   203.02469681990124     
 total        electrons   203.02469681990124     
 total        electrons   203.02469681990124     
 total        electrons   203.02469681990124     
 total        electrons   203.02469681990124     
 total        electrons   203.02469681990124     
 total        electrons   203.02469681990124     
 total        electrons   203.02469681990124     
 total        electrons   203.02469681990124     
 total        electrons   203.02469681990124     
 total        electrons   203.02469681990124     
 total        electrons   203.02469681990124     
 total        electrons   203.02469681990124     
 total        electrons   203.02469681990124     
 total        electrons   203.02469681990124     
 total        electrons   203.02469681990124     
 total        electrons   203.02469681990124     
 total        electrons   203.02469681990124     
 total        electrons   203.02469681990124     
 total        electrons   203.02469681990124     
 total        electrons   203.02469681990124     
 total        electrons   203.02469681990124     
 total        electrons   203.02469681990124     
 total        electrons   203.02469681990124     
 total        electrons   203.02469681990124     
 total        electrons   203.02469681990124     
 total        electrons   203.02469681990124     
 total        electrons   203.02469681990124     
 total        electrons   203.02469681990124     
 total        electrons   203.02469681990124     
 total        electrons   203.02469681990124     
 total        electrons   203.02469681990124     
 total        electrons   203.02469681990124     
 total        electrons   203.02469681990124     
 total        electrons   203.02469681990124     
 total        electrons   203.02469681990124     
 total        electrons   203.02469681990124     
 total        electrons   203.02469681990124     
 total        electrons   203.02469681990124     
 total        electrons   203.02469681990124     
 total        electrons   203.02469681990124     
 augmentation electrons   618.60999394600503     
 soft         electrons   0.0000000000000000     
 augmentation electrons   618.60999394600503     
 soft         electrons   0.0000000000000000     
 augmentation electrons   618.60999394600503     
 soft         electrons   0.0000000000000000     
 augmentation electrons   618.60999394600503     
 soft         electrons   0.0000000000000000     
 augmentation electrons   618.60999394600503     
 soft         electrons   0.0000000000000000     
 augmentation electrons   618.60999394600503     
 soft         electrons   0.0000000000000000     
 augmentation electrons   618.60999394600503     
 soft         electrons   0.0000000000000000     
 augmentation electrons   618.60999394600503     
 soft         electrons   0.0000000000000000     
 augmentation electrons   618.60999394600503     
 soft         electrons   0.0000000000000000     
 augmentation electrons   618.60999394600503     
 soft         electrons   0.0000000000000000     
 augmentation electrons   618.60999394600503     
 soft         electrons   0.0000000000000000     
 augmentation electrons   618.60999394600503     
 soft         electrons   0.0000000000000000     
 augmentation electrons   618.60999394600503     
 soft         electrons   0.0000000000000000     
 augmentation electrons   618.60999394600503     
 soft         electrons   0.0000000000000000     
 augmentation electrons   618.60999394600503     
 soft         electrons   0.0000000000000000     
 augmentation electrons   618.60999394600503     
 soft         electrons   0.0000000000000000     
 augmentation electrons   618.60999394600503     
 soft         electrons   0.0000000000000000     
 augmentation electrons   618.60999394600503     
 soft         electrons   0.0000000000000000     
 augmentation electrons   618.60999394600503     
 soft         electrons   0.0000000000000000     
 augmentation electrons   618.60999394600503     
 soft         electrons   0.0000000000000000     
 augmentation electrons   618.60999394600503     
 soft         electrons   0.0000000000000000     
 augmentation electrons   618.60999394600503     
 soft         electrons   0.0000000000000000     
 augmentation electrons   618.60999394600503     
 soft         electrons   0.0000000000000000     
 augmentation electrons   618.60999394600503     
 soft         electrons   0.0000000000000000     
 augmentation electrons   618.60999394600503     
 soft         electrons   0.0000000000000000     
 augmentation electrons   618.60999394600503     
 soft         electrons   0.0000000000000000     
 augmentation electrons   618.60999394600503     
 soft         electrons   0.0000000000000000     
 augmentation electrons   618.60999394600503     
 soft         electrons   0.0000000000000000     
 augmentation electrons   618.60999394600503     
 soft         electrons   0.0000000000000000     
 augmentation electrons   618.60999394600503     
 soft         electrons   0.0000000000000000     
 augmentation electrons   618.60999394600503     
 soft         electrons   0.0000000000000000     
 augmentation electrons   618.60999394600503     
 augmentation electrons   618.60999394600503     
 soft         electrons   0.0000000000000000     
 augmentation electrons   618.60999394600503     
 soft         electrons   0.0000000000000000     
 augmentation electrons   618.60999394600503     
 soft         electrons   0.0000000000000000     
 augmentation electrons   618.60999394600503     
 soft         electrons   0.0000000000000000     
 augmentation electrons   618.60999394600503     
 soft         electrons   0.0000000000000000     
 augmentation electrons   618.60999394600503     
 soft         electrons   0.0000000000000000     
 augmentation electrons   618.60999394600503     
 soft         electrons   0.0000000000000000     
 augmentation electrons   618.60999394600503     
 soft         electrons   0.0000000000000000     
 augmentation electrons   618.60999394600503     
 soft         electrons   0.0000000000000000     
 augmentation electrons   618.60999394600503     
 soft         electrons   0.0000000000000000     
 augmentation electrons   618.60999394600503     
 soft         electrons   0.0000000000000000     
 augmentation electrons   618.60999394600503     
 soft         electrons   0.0000000000000000     
 augmentation electrons   618.60999394600503     
 soft         electrons   0.0000000000000000     
 augmentation electrons   618.60999394600503     
 soft         electrons   0.0000000000000000     
 augmentation electrons   618.60999394600503     
 soft         electrons   0.0000000000000000     
 augmentation electrons   618.60999394600503     
 soft         electrons   0.0000000000000000     
 augmentation electrons   618.60999394600503     
 soft         electrons   0.0000000000000000     
 augmentation electrons   618.60999394600503     
 soft         electrons   0.0000000000000000     
 augmentation electrons   618.60999394600503     
 soft         electrons   0.0000000000000000     
 augmentation electrons   618.60999394600503     
 soft         electrons   0.0000000000000000     
 augmentation electrons   618.60999394600503     
 soft         electrons   0.0000000000000000     
 augmentation electrons   618.60999394600503     
 soft         electrons   0.0000000000000000     
 soft         electrons   0.0000000000000000     
 total        electrons   618.60999394600503     
 total        electrons   618.60999394600503     
 total        electrons   618.60999394600503     
 total        electrons   618.60999394600503     
 total        electrons   618.60999394600503     
 total        electrons   618.60999394600503     
 total        electrons   618.60999394600503     
 total        electrons   618.60999394600503     
 total        electrons   618.60999394600503     
 total        electrons   618.60999394600503     
 total        electrons   618.60999394600503     
 total        electrons   618.60999394600503     
 total        electrons   618.60999394600503     
 total        electrons   618.60999394600503     
 total        electrons   618.60999394600503     
 total        electrons   618.60999394600503     
 total        electrons   618.60999394600503     
 total        electrons   618.60999394600503     
 total        electrons   618.60999394600503     
 total        electrons   618.60999394600503     
 total        electrons   618.60999394600503     
 total        electrons   618.60999394600503     
 total        electrons   618.60999394600503     
 total        electrons   618.60999394600503     
 total        electrons   618.60999394600503     
 total        electrons   618.60999394600503     
 total        electrons   618.60999394600503     
 total        electrons   618.60999394600503     
 total        electrons   618.60999394600503     
 total        electrons   618.60999394600503     
 total        electrons   618.60999394600503     
 total        electrons   618.60999394600503     
 total        electrons   618.60999394600503     
 total        electrons   618.60999394600503     
 total        electrons   618.60999394600503     
 total        electrons   618.60999394600503     
 total        electrons   618.60999394600503     
 total        electrons   618.60999394600503     
 total        electrons   618.60999394600503     
 total        electrons   618.60999394600503     
 total        electrons   618.60999394600503     
 total        electrons   618.60999394600503     
 total        electrons   618.60999394600503     
 total        electrons   618.60999394600503     
 total        electrons   618.60999394600503     
 total        electrons   618.60999394600503     
 total        electrons   618.60999394600503     
 total        electrons   618.60999394600503     
 total        electrons   618.60999394600503     
 total        electrons   618.60999394600503     
 total        electrons   618.60999394600503     
 total        electrons   618.60999394600503     
 total        electrons   618.60999394600503     
 total        electrons   618.60999394600503     
 entering main loop
       N       E                     dE             d eps       ncg     rms          rms(c)
DAV:   1     0.179742244126E+04    0.17974E+04   -0.75758E+04 10824   0.134E+03
DAV:   2    -0.158665669113E+03   -0.19561E+04   -0.17955E+04 11520   0.349E+02
DAV:   3    -0.487819242192E+03   -0.32915E+03   -0.31460E+03 15432   0.149E+02
DAV:   4    -0.511552658509E+03   -0.23733E+02   -0.23128E+02 17208   0.436E+01
DAV:   5    -0.512496990704E+03   -0.94433E+00   -0.92731E+00 18168   0.846E+00    0.115E+02
RMM:   6    -0.496594066509E+03    0.15903E+02   -0.86726E+02 14914   0.899E+01    0.706E+01
RMM:   7    -0.538104174131E+03   -0.41510E+02   -0.33145E+02 14446   0.616E+01    0.441E+01
RMM:   8    -0.460380829517E+03    0.77723E+02   -0.69686E+01 14180   0.207E+01    0.302E+01
RMM:   9    -0.461182889612E+03   -0.80206E+00   -0.30158E+01 13719   0.167E+01    0.282E+01
RMM:  10    -0.439496234538E+03    0.21687E+02   -0.16415E+01 14145   0.111E+01    0.193E+01
RMM:  11    -0.436986580395E+03    0.25097E+01   -0.42417E+00 12000   0.761E+00    0.161E+01
RMM:  12    -0.436430212467E+03    0.55637E+00   -0.15323E+00 13948   0.278E+00    0.148E+01
RMM:  13    -0.436435799770E+03   -0.55873E-02   -0.19342E-01 14349   0.952E-01    0.141E+01
RMM:  14    -0.436187213092E+03    0.24859E+00   -0.27361E-01 11881   0.185E+00    0.116E+01
RMM:  15    -0.435200699398E+03    0.98651E+00   -0.52565E+00 10848   0.967E+00    0.578E+00
RMM:  16    -0.435021723136E+03    0.17898E+00   -0.20507E+00 14847   0.264E+00    0.352E+00
RMM:  17    -0.434904358485E+03    0.11736E+00   -0.11842E-01 11513   0.122E+00    0.248E+00
RMM:  18    -0.434900729349E+03    0.36291E-02   -0.11706E-01 11353   0.114E+00    0.229E+00
RMM:  19    -0.434853502745E+03    0.47227E-01   -0.98598E-02 13355   0.805E-01    0.127E+00
RMM:  20    -0.434836777407E+03    0.16725E-01   -0.45086E-02 11604   0.724E-01    0.534E-01
RMM:  21    -0.434843428362E+03   -0.66510E-02   -0.18972E-02 11063   0.535E-01    0.890E-01
RMM:  22    -0.434833033097E+03    0.10395E-01   -0.19235E-02 11507   0.471E-01    0.120E-01
RMM:  23    -0.434834697330E+03   -0.16642E-02   -0.16299E-02 14403   0.210E-01    0.225E-01
RMM:  24    -0.434835343910E+03   -0.64658E-03   -0.15236E-03 14596   0.715E-02    0.212E-01
RMM:  25    -0.434835911243E+03   -0.56733E-03   -0.99062E-04 11290   0.112E-01    0.667E-02
RMM:  26    -0.434837021714E+03   -0.11105E-02   -0.69490E-04 13535   0.533E-02    0.116E-01
RMM:  27    -0.434837960809E+03   -0.93910E-03   -0.44457E-04 12171   0.601E-02    0.491E-02
RMM:  28    -0.434838615765E+03   -0.65496E-03   -0.15002E-04 14007   0.262E-02    0.419E-02
RMM:  29    -0.434838874577E+03   -0.25881E-03   -0.63015E-05 11406   0.226E-02    0.171E-02
RMM:  30    -0.434839035419E+03   -0.16084E-03   -0.30370E-05 11592   0.918E-03    0.102E-02
RMM:  31    -0.434839092600E+03   -0.57181E-04   -0.54575E-06  8384   0.607E-03    0.767E-03
RMM:  32    -0.434839139464E+03   -0.46864E-04   -0.44695E-06  8147   0.679E-03    0.524E-03
RMM:  33    -0.434839150957E+03   -0.11493E-04   -0.21295E-06  7246   0.636E-03    0.666E-03
RMM:  34    -0.434839155177E+03   -0.42199E-05   -0.18688E-06  7213   0.622E-03    0.346E-03
RMM:  35    -0.434839162164E+03   -0.69873E-05   -0.15733E-06  7202   0.394E-03    0.261E-03
RMM:  36    -0.434839163452E+03   -0.12879E-05   -0.66162E-07  6418   0.271E-03    0.133E-03
RMM:  37    -0.434839164472E+03   -0.10199E-05   -0.29275E-07  6048   0.220E-03    0.823E-04
RMM:  38    -0.434839164754E+03   -0.28191E-06   -0.20586E-07  5140   0.144E-03
   1 F= -.43483916E+03 E0= -.43484381E+03  d E =-.434839E+03
 curvature:   0.00 expect dE= 0.000E+00 dE for cont linesearch  0.000E+00
 trial: gam= 0.00000 g(F)=  0.441E+01 g(S)=  0.000E+00 ort = 0.000E+00 (trialstep = 0.100E+01)
 search vector abs. value=  0.441E+01
 bond charge predicted
       N       E                     dE             d eps       ncg     rms          rms(c)
DAV:   1    -0.435258453572E+03   -0.41929E+00   -0.15391E+02 11064   0.309E+01    0.396E+00
RMM:   2    -0.435547122190E+03   -0.28867E+00   -0.63685E+00 13843   0.664E+00    0.348E+00
RMM:   3    -0.435728712158E+03   -0.18159E+00   -0.11124E+00 11125   0.439E+00    0.482E+00
RMM:   4    -0.435663950732E+03    0.64761E-01   -0.49827E-01 14029   0.190E+00    0.315E+00
RMM:   5    -0.435450005612E+03    0.21395E+00   -0.28595E-01 12565   0.167E+00    0.199E+00
RMM:   6    -0.435428845637E+03    0.21160E-01   -0.14603E-01 12524   0.126E+00    0.160E+00
RMM:   7    -0.435401712166E+03    0.27133E-01   -0.68481E-02 12022   0.909E-01    0.120E+00
RMM:   8    -0.435387200150E+03    0.14512E-01   -0.28172E-02 11858   0.600E-01    0.421E-01
RMM:   9    -0.435385387041E+03    0.18131E-02   -0.10989E-02 13637   0.248E-01    0.189E-01
RMM:  10    -0.435385700528E+03   -0.31349E-03   -0.38549E-03 13605   0.152E-01    0.201E-01
RMM:  11    -0.435385258350E+03    0.44218E-03   -0.13332E-03 12016   0.116E-01    0.107E-01
RMM:  12    -0.435385278034E+03   -0.19683E-04   -0.66460E-04 13113   0.686E-02    0.781E-02
RMM:  13    -0.435385225230E+03    0.52803E-04   -0.29644E-04 13327   0.432E-02    0.345E-02
RMM:  14    -0.435385251249E+03   -0.26018E-04   -0.11425E-04 13874   0.184E-02    0.174E-02
RMM:  15    -0.435385273650E+03   -0.22401E-04   -0.27481E-05 11949   0.104E-02    0.988E-03
RMM:  16    -0.435385295927E+03   -0.22277E-04   -0.76926E-06  9469   0.644E-03    0.352E-03
RMM:  17    -0.435385316621E+03   -0.20695E-04   -0.33559E-06  7793   0.496E-03    0.269E-03
RMM:  18    -0.435385335932E+03   -0.19311E-04   -0.27213E-06  7497   0.395E-03    0.185E-03
RMM:  19    -0.435385356142E+03   -0.20210E-04   -0.33835E-06  7671   0.379E-03    0.173E-03
RMM:  20    -0.435385372008E+03   -0.15866E-04   -0.32092E-06  7529   0.363E-03    0.113E-03
RMM:  21    -0.435385381199E+03   -0.91912E-05   -0.20286E-06  6859   0.326E-03    0.755E-04
RMM:  22    -0.435385385663E+03   -0.44641E-05   -0.10215E-06  6134   0.269E-03    0.489E-04
RMM:  23    -0.435385389096E+03   -0.34328E-05   -0.74345E-07  5680   0.216E-03    0.293E-04
RMM:  24    -0.435385390568E+03   -0.14713E-05   -0.35874E-07  5099   0.184E-03    0.252E-04
RMM:  25    -0.435385392334E+03   -0.17670E-05   -0.34982E-07  4714   0.137E-03    0.122E-04
RMM:  26    -0.435385393542E+03   -0.12077E-05   -0.29552E-07  4584   0.139E-03    0.121E-04
RMM:  27    -0.435385393816E+03   -0.27407E-06   -0.17374E-07  4027   0.114E-03
   2 F= -.43538539E+03 E0= -.43538840E+03  d E =-.546229E+00
 trial-energy change:   -0.546229  1 .order   -1.519909   -4.411404    1.371585
 step:   0.5104(harm=  0.7628)  dis= 0.10465  next Energy=  -435.835460 (dE=-0.996E+00)
 bond charge predicted
       N       E                     dE             d eps       ncg     rms          rms(c)
DAV:   1    -0.435761646436E+03   -0.37625E+00   -0.34786E+01 11112   0.141E+01    0.187E+00
RMM:   2    -0.435870488963E+03   -0.10884E+00   -0.11909E+00 11970   0.343E+00    0.276E+00
RMM:   3    -0.435832320341E+03    0.38169E-01   -0.20549E-01 12321   0.166E+00    0.166E+00
RMM:   4    -0.435841496454E+03   -0.91761E-02   -0.15057E-01 14278   0.922E-01    0.178E+00
RMM:   5    -0.435787174713E+03    0.54322E-01   -0.80786E-02 11901   0.976E-01    0.972E-01
RMM:   6    -0.435789061829E+03   -0.18871E-02   -0.55534E-02 12568   0.712E-01    0.104E+00
RMM:   7    -0.435776793760E+03    0.12268E-01   -0.16784E-02 11727   0.470E-01    0.336E-01
RMM:   8    -0.435775813655E+03    0.98011E-03   -0.64154E-03 13266   0.216E-01    0.232E-01
RMM:   9    -0.435775372850E+03    0.44081E-03   -0.23072E-03 12820   0.139E-01    0.161E-01
RMM:  10    -0.435775191310E+03    0.18154E-03   -0.10516E-03 12487   0.104E-01    0.974E-02
RMM:  11    -0.435775107781E+03    0.83530E-04   -0.40598E-04 12895   0.564E-02    0.413E-02
RMM:  12    -0.435775100683E+03    0.70976E-05   -0.20228E-04 13975   0.295E-02    0.269E-02
RMM:  13    -0.435775090094E+03    0.10589E-04   -0.55406E-05 13124   0.164E-02    0.131E-02
RMM:  14    -0.435775094148E+03   -0.40538E-05   -0.17136E-05 10712   0.748E-03    0.771E-03
RMM:  15    -0.435775098536E+03   -0.43887E-05   -0.30992E-06  7756   0.586E-03    0.445E-03
RMM:  16    -0.435775104532E+03   -0.59956E-05   -0.13634E-06  6711   0.374E-03    0.180E-03
RMM:  17    -0.435775111630E+03   -0.70984E-05   -0.96401E-07  6585   0.321E-03    0.133E-03
RMM:  18    -0.435775117911E+03   -0.62803E-05   -0.70496E-07  6490   0.259E-03    0.899E-04
RMM:  19    -0.435775124469E+03   -0.65579E-05   -0.72990E-07  6147   0.216E-03    0.821E-04
RMM:  20    -0.435775130426E+03   -0.59570E-05   -0.83635E-07  6157   0.216E-03    0.608E-04
RMM:  21    -0.435775132857E+03   -0.24311E-05   -0.42495E-07  5604   0.192E-03    0.277E-04
RMM:  22    -0.435775134161E+03   -0.13047E-05   -0.28121E-07  4988   0.144E-03    0.244E-04
RMM:  23    -0.435775134936E+03   -0.77509E-06   -0.17797E-07  4540   0.130E-03
   3 F= -.43577513E+03 E0= -.43577905E+03  d E =-.935970E+00
 curvature:   0.05 expect dE= 0.217E-01 dE for cont linesearch  0.118E-04
 trial: gam= 0.08987 g(F)=  0.429E+00 g(S)=  0.000E+00 ort = 0.321E-01 (trialstep = 0.902E+00)
 search vector abs. value=  0.470E+00
 bond charge predicted
       N       E                     dE             d eps       ncg     rms          rms(c)
DAV:   1    -0.436024132002E+03   -0.24900E+00   -0.16918E+01 10824   0.100E+01    0.133E+00
RMM:   2    -0.436191527136E+03   -0.16740E+00   -0.58537E-01 14251   0.205E+00    0.293E+00
RMM:   3    -0.436035343119E+03    0.15618E+00   -0.87304E-02 11846   0.112E+00    0.922E-01
RMM:   4    -0.436056212396E+03   -0.20869E-01   -0.11542E-01 12740   0.956E-01    0.147E+00
RMM:   5    -0.436027244760E+03    0.28968E-01   -0.47027E-02 12161   0.730E-01    0.731E-01
RMM:   6    -0.436024274143E+03    0.29706E-02   -0.20230E-02 12047   0.478E-01    0.511E-01
RMM:   7    -0.436021364848E+03    0.29093E-02   -0.68163E-03 12601   0.255E-01    0.209E-01
RMM:   8    -0.436021244443E+03    0.12040E-03   -0.29324E-03 13006   0.146E-01    0.184E-01
RMM:   9    -0.436020873050E+03    0.37139E-03   -0.10244E-03 12107   0.101E-01    0.775E-02
RMM:  10    -0.436020902949E+03   -0.29899E-04   -0.55086E-04 13446   0.602E-02    0.667E-02
RMM:  11    -0.436020837058E+03    0.65891E-04   -0.18943E-04 12536   0.402E-02    0.226E-02
RMM:  12    -0.436020834125E+03    0.29328E-05   -0.84798E-05 13258   0.152E-02    0.125E-02
RMM:  13    -0.436020835004E+03   -0.87949E-06   -0.19543E-05 11053   0.891E-03    0.633E-03
RMM:  14    -0.436020836146E+03   -0.11418E-05   -0.29536E-06  7685   0.514E-03    0.378E-03
RMM:  15    -0.436020837477E+03   -0.13308E-05   -0.16375E-06  6928   0.432E-03    0.274E-03
RMM:  16    -0.436020839217E+03   -0.17405E-05   -0.87423E-07  6475   0.350E-03    0.129E-03
RMM:  17    -0.436020841139E+03   -0.19219E-05   -0.40681E-07  6440   0.250E-03    0.961E-04
RMM:  18    -0.436020843392E+03   -0.22524E-05   -0.30843E-07  6154   0.169E-03    0.558E-04
RMM:  19    -0.436020844916E+03   -0.15247E-05   -0.19740E-07  5705   0.155E-03    0.582E-04
RMM:  20    -0.436020847191E+03   -0.22751E-05   -0.29050E-07  5088   0.123E-03    0.351E-04
RMM:  21    -0.436020848478E+03   -0.12870E-05   -0.20908E-07  5126   0.146E-03    0.369E-04
RMM:  22    -0.436020848936E+03   -0.45798E-06   -0.14274E-07  4375   0.107E-03
   4 F= -.43602085E+03 E0= -.43602478E+03  d E =-.245714E+00
 trial-energy change:   -0.245714  1 .order   -0.244340   -0.389174   -0.099507
 step:   1.2006(harm=  1.2120)  dis= 0.05396  next Energy=  -436.037366 (dE=-0.262E+00)
 bond charge predicted
       N       E                     dE             d eps       ncg     rms          rms(c)
DAV:   1    -0.436038140561E+03   -0.17292E-01   -0.18682E+00 11328   0.330E+00    0.472E-01
RMM:   2    -0.436067383361E+03   -0.29243E-01   -0.83067E-02 14058   0.792E-01    0.129E+00
RMM:   3    -0.436039024025E+03    0.28359E-01   -0.13834E-02 11562   0.456E-01    0.345E-01
RMM:   4    -0.436040543275E+03   -0.15192E-02   -0.13810E-02 12951   0.314E-01    0.422E-01
RMM:   5    -0.436038631073E+03    0.19122E-02   -0.62475E-03 12747   0.239E-01    0.322E-01
RMM:   6    -0.436037517118E+03    0.11140E-02   -0.22536E-03 11600   0.175E-01    0.144E-01
RMM:   7    -0.436037349686E+03    0.16743E-03   -0.83190E-04 13273   0.798E-02    0.742E-02
RMM:   8    -0.436037305114E+03    0.44573E-04   -0.29397E-04 12783   0.497E-02    0.580E-02
RMM:   9    -0.436037270278E+03    0.34835E-04   -0.12279E-04 12482   0.331E-02    0.283E-02
RMM:  10    -0.436037271016E+03   -0.73808E-06   -0.59078E-05 12223   0.226E-02    0.234E-02
RMM:  11    -0.436037264121E+03    0.68954E-05   -0.21222E-05 10597   0.132E-02    0.713E-03
RMM:  12    -0.436037263517E+03    0.60444E-06   -0.97816E-06  8887   0.619E-03
   5 F= -.43603726E+03 E0= -.43604119E+03  d E =-.262129E+00
 curvature:  -0.66 expect dE=-0.774E-01 dE for cont linesearch -0.210E-05
 trial: gam= 0.30705 g(F)=  0.117E+00 g(S)=  0.000E+00 ort =-0.122E-02 (trialstep = 0.962E+00)
 search vector abs. value=  0.161E+00
 bond charge predicted
       N       E                     dE             d eps       ncg     rms          rms(c)
DAV:   1    -0.436107440364E+03   -0.70176E-01   -0.68667E+00 10836   0.629E+00    0.766E-01
RMM:   2    -0.436166007058E+03   -0.58567E-01   -0.22192E-01 13914   0.138E+00    0.179E+00
RMM:   3    -0.436113889667E+03    0.52117E-01   -0.35838E-02 11871   0.715E-01    0.584E-01
RMM:   4    -0.436114550415E+03   -0.66075E-03   -0.31837E-02 13687   0.451E-01    0.610E-01
RMM:   5    -0.436110649803E+03    0.39006E-02   -0.15762E-02 12231   0.404E-01    0.482E-01
RMM:   6    -0.436109635784E+03    0.10140E-02   -0.85256E-03 12057   0.311E-01    0.373E-01
RMM:   7    -0.436108005846E+03    0.16299E-02   -0.27076E-03 12306   0.175E-01    0.128E-01
RMM:   8    -0.436107878730E+03    0.12712E-03   -0.11076E-03 12914   0.898E-02    0.993E-02
RMM:   9    -0.436107757956E+03    0.12077E-03   -0.40915E-04 13002   0.565E-02    0.534E-02
RMM:  10    -0.436107759999E+03   -0.20424E-05   -0.23525E-04 13219   0.428E-02    0.466E-02
RMM:  11    -0.436107732359E+03    0.27639E-04   -0.97290E-05 13183   0.272E-02    0.145E-02
RMM:  12    -0.436107730066E+03    0.22934E-05   -0.29307E-05 11000   0.863E-03    0.681E-03
RMM:  13    -0.436107731039E+03   -0.97329E-06   -0.10075E-05 10044   0.733E-03    0.427E-03
RMM:  14    -0.436107731232E+03   -0.19303E-06   -0.17535E-06  6980   0.477E-03
   6 F= -.43610773E+03 E0= -.43611134E+03  d E =-.704677E-01
 trial-energy change:   -0.070468  1 .order   -0.070372   -0.112520   -0.028224
 step:   1.2838(harm=  1.2838)  dis= 0.03099  next Energy=  -436.112360 (dE=-0.751E-01)
 bond charge predicted
       N       E                     dE             d eps       ncg     rms          rms(c)
DAV:   1    -0.436112535989E+03   -0.48049E-02   -0.76818E-01 11232   0.209E+00    0.265E-01
RMM:   2    -0.436120161283E+03   -0.76253E-02   -0.27350E-02 13620   0.498E-01    0.666E-01
RMM:   3    -0.436113200842E+03    0.69604E-02   -0.46310E-03 11752   0.261E-01    0.203E-01
RMM:   4    -0.436113172561E+03    0.28282E-04   -0.35561E-03 13630   0.151E-01    0.192E-01
RMM:   5    -0.436112910916E+03    0.26164E-03   -0.19077E-03 12520   0.135E-01    0.180E-01
RMM:   6    -0.436112658676E+03    0.25224E-03   -0.93330E-04 11900   0.106E-01    0.115E-01
RMM:   7    -0.436112513697E+03    0.14498E-03   -0.30854E-04 12585   0.567E-02    0.428E-02
RMM:   8    -0.436112497386E+03    0.16310E-04   -0.11960E-04 12737   0.301E-02    0.322E-02
RMM:   9    -0.436112485083E+03    0.12303E-04   -0.45891E-05 12567   0.188E-02    0.182E-02
RMM:  10    -0.436112485771E+03   -0.68776E-06   -0.26354E-05 11338   0.151E-02    0.165E-02
RMM:  11    -0.436112482943E+03    0.28286E-05   -0.10778E-05  9761   0.961E-03    0.449E-03
RMM:  12    -0.436112482664E+03    0.27869E-06   -0.33411E-06  7645   0.441E-03
   7 F= -.43611248E+03 E0= -.43611596E+03  d E =-.752191E-01
 curvature:  -0.88 expect dE=-0.323E-01 dE for cont linesearch -0.244E-07
 trial: gam= 0.30817 g(F)=  0.366E-01 g(S)=  0.000E+00 ort =-0.667E-04 (trialstep = 0.103E+01)
 search vector abs. value=  0.519E-01
 bond charge predicted
       N       E                     dE             d eps       ncg     rms          rms(c)
DAV:   1    -0.436134907710E+03   -0.22425E-01   -0.21796E+00 10824   0.373E+00    0.444E-01
RMM:   2    -0.436140003450E+03   -0.50957E-02   -0.59043E-02 11766   0.888E-01    0.486E-01
RMM:   3    -0.436140999842E+03   -0.99639E-03   -0.13768E-02 13635   0.370E-01    0.425E-01
RMM:   4    -0.436140091974E+03    0.90787E-03   -0.58046E-03 14397   0.180E-01    0.359E-01
RMM:   5    -0.436138850638E+03    0.12413E-02   -0.41650E-03 11936   0.225E-01    0.292E-01
RMM:   6    -0.436138092005E+03    0.75863E-03   -0.18755E-03 12476   0.140E-01    0.158E-01
RMM:   7    -0.436137888067E+03    0.20394E-03   -0.80048E-04 11480   0.106E-01    0.110E-01
RMM:   8    -0.436137762257E+03    0.12581E-03   -0.24800E-04 12301   0.528E-02    0.457E-02
RMM:   9    -0.436137743555E+03    0.18702E-04   -0.10191E-04 12216   0.298E-02    0.198E-02
RMM:  10    -0.436137742003E+03    0.15523E-05   -0.46195E-05 12579   0.148E-02    0.127E-02
RMM:  11    -0.436137741109E+03    0.89403E-06   -0.12549E-05  9305   0.112E-02    0.935E-03
RMM:  12    -0.436137740333E+03    0.77598E-06   -0.56144E-06  8045   0.695E-03
   8 F= -.43613774E+03 E0= -.43614128E+03  d E =-.252577E-01
 trial-energy change:   -0.025258  1 .order   -0.025207   -0.037554   -0.012860
 step:   1.5606(harm=  1.5606)  dis= 0.02786  next Energy=  -436.141038 (dE=-0.286E-01)
 bond charge predicted
       N       E                     dE             d eps       ncg     rms          rms(c)
DAV:   1    -0.436140344233E+03   -0.26031E-02   -0.59207E-01 11064   0.194E+00    0.232E-01
RMM:   2    -0.436141762456E+03   -0.14182E-02   -0.16119E-02 11780   0.462E-01    0.254E-01
RMM:   3    -0.436141991205E+03   -0.22875E-03   -0.37502E-03 13627   0.194E-01    0.220E-01
RMM:   4    -0.436141806443E+03    0.18476E-03   -0.16237E-03 14385   0.955E-02    0.192E-01
RMM:   5    -0.436141407888E+03    0.39856E-03   -0.11197E-03 11977   0.117E-01    0.149E-01
RMM:   6    -0.436141219187E+03    0.18870E-03   -0.51562E-04 12532   0.729E-02    0.823E-02
RMM:   7    -0.436141165846E+03    0.53342E-04   -0.22049E-04 11562   0.550E-02    0.592E-02
RMM:   8    -0.436141128795E+03    0.37051E-04   -0.67214E-05 12162   0.279E-02    0.228E-02
RMM:   9    -0.436141124783E+03    0.40118E-05   -0.28575E-05 10866   0.153E-02    0.104E-02
RMM:  10    -0.436141124598E+03    0.18446E-06   -0.11865E-05  9562   0.795E-03    0.665E-03
RMM:  11    -0.436141124358E+03    0.24064E-06   -0.33467E-06  7487   0.686E-03
   9 F= -.43614112E+03 E0= -.43614469E+03  d E =-.286417E-01
 curvature:  -1.11 expect dE=-0.215E-01 dE for cont linesearch -0.697E-13
 trial: gam= 0.51756 g(F)=  0.194E-01 g(S)=  0.000E+00 ort = 0.572E-07 (trialstep = 0.113E+01)
 search vector abs. value=  0.333E-01
 bond charge predicted
       N       E                     dE             d eps       ncg     rms          rms(c)
DAV:   1    -0.436154567011E+03   -0.13442E-01   -0.14568E+00 10824   0.308E+00    0.355E-01
RMM:   2    -0.436165342699E+03   -0.10776E-01   -0.41476E-02 11962   0.750E-01    0.698E-01
RMM:   3    -0.436156670076E+03    0.86726E-02   -0.94001E-03 13284   0.327E-01    0.250E-01
RMM:   4    -0.436157743130E+03   -0.10731E-02   -0.58590E-03 14210   0.186E-01    0.355E-01
RMM:   5    -0.436155926725E+03    0.18164E-02   -0.30405E-03 11857   0.199E-01    0.174E-01
RMM:   6    -0.436155969809E+03   -0.43084E-04   -0.16913E-03 12942   0.123E-01    0.158E-01
RMM:   7    -0.436155695348E+03    0.27446E-03   -0.54738E-04 11510   0.857E-02    0.763E-02
RMM:   8    -0.436155636856E+03    0.58492E-04   -0.19911E-04 12693   0.436E-02    0.407E-02
RMM:   9    -0.436155620181E+03    0.16675E-04   -0.87805E-05 12641   0.253E-02    0.186E-02
RMM:  10    -0.436155623331E+03   -0.31496E-05   -0.46625E-05 12773   0.158E-02    0.159E-02
RMM:  11    -0.436155618693E+03    0.46379E-05   -0.11379E-05  9270   0.100E-02    0.670E-03
RMM:  12    -0.436155618712E+03   -0.19112E-07   -0.44828E-06  7802   0.646E-03
  10 F= -.43615562E+03 E0= -.43615924E+03  d E =-.144944E-01
 trial-energy change:   -0.014494  1 .order   -0.014509   -0.021998   -0.007020
 step:   1.6642(harm=  1.6642)  dis= 0.01717  next Energy=  -436.157279 (dE=-0.162E-01)
 bond charge predicted
       N       E                     dE             d eps       ncg     rms          rms(c)
DAV:   1    -0.436157071337E+03   -0.14526E-02   -0.31991E-01 11064   0.144E+00    0.165E-01
RMM:   2    -0.436159319472E+03   -0.22481E-02   -0.89718E-03 12049   0.345E-01    0.317E-01
RMM:   3    -0.436157544991E+03    0.17745E-02   -0.20358E-03 13314   0.152E-01    0.117E-01
RMM:   4    -0.436157785761E+03   -0.24077E-03   -0.12924E-03 14197   0.879E-02    0.168E-01
RMM:   5    -0.436157373183E+03    0.41258E-03   -0.66091E-04 11831   0.930E-02    0.794E-02
RMM:   6    -0.436157385685E+03   -0.12502E-04   -0.36628E-04 12957   0.572E-02    0.725E-02
RMM:   7    -0.436157327583E+03    0.58102E-04   -0.11643E-04 11453   0.394E-02    0.353E-02
RMM:   8    -0.436157314620E+03    0.12963E-04   -0.42792E-05 12202   0.201E-02    0.184E-02
RMM:   9    -0.436157311445E+03    0.31753E-05   -0.18818E-05 10220   0.116E-02    0.878E-03
RMM:  10    -0.436157312286E+03   -0.84158E-06   -0.93237E-06  9454   0.798E-03
  11 F= -.43615731E+03 E0= -.43616097E+03  d E =-.161879E-01
 curvature:  -1.43 expect dE=-0.138E-01 dE for cont linesearch -0.477E-06
 trial: gam= 0.49201 g(F)=  0.966E-02 g(S)=  0.000E+00 ort = 0.105E-03 (trialstep = 0.124E+01)
 search vector abs. value=  0.178E-01
 bond charge predicted
       N       E                     dE             d eps       ncg     rms          rms(c)
DAV:   1    -0.436163726129E+03   -0.64147E-02   -0.91901E-01 10824   0.249E+00    0.301E-01
RMM:   2    -0.436169093410E+03   -0.53673E-02   -0.25104E-02 12357   0.579E-01    0.517E-01
RMM:   3    -0.436165263345E+03    0.38301E-02   -0.56202E-03 13127   0.256E-01    0.212E-01
RMM:   4    -0.436165595660E+03   -0.33231E-03   -0.39730E-03 14047   0.159E-01    0.266E-01
RMM:   5    -0.436164688686E+03    0.90697E-03   -0.20353E-03 11472   0.168E-01    0.147E-01
RMM:   6    -0.436164557896E+03    0.13079E-03   -0.99733E-04 13208   0.871E-02    0.102E-01
RMM:   7    -0.436164440971E+03    0.11693E-03   -0.30150E-04 11850   0.607E-02    0.576E-02
RMM:   8    -0.436164416095E+03    0.24875E-04   -0.11988E-04 12677   0.330E-02    0.366E-02
RMM:   9    -0.436164400929E+03    0.15166E-04   -0.48780E-05 11950   0.203E-02    0.160E-02
RMM:  10    -0.436164400798E+03    0.13074E-06   -0.24656E-05 11312   0.124E-02    0.119E-02
RMM:  11    -0.436164399459E+03    0.13390E-05   -0.70210E-06  8185   0.875E-03    0.581E-03
RMM:  12    -0.436164399868E+03   -0.40849E-06   -0.37975E-06  7493   0.580E-03
  12 F= -.43616440E+03 E0= -.43616798E+03  d E =-.708758E-02
 trial-energy change:   -0.007088  1 .order   -0.007078   -0.012036   -0.002121
 step:   1.5044(harm=  1.5044)  dis= 0.01421  next Energy=  -436.164617 (dE=-0.730E-02)
 bond charge predicted
       N       E                     dE             d eps       ncg     rms          rms(c)
DAV:   1    -0.436164605011E+03   -0.20555E-03   -0.42109E-02 11736   0.532E-01    0.644E-02
RMM:   2    -0.436164842258E+03   -0.23725E-03   -0.11383E-03 12482   0.122E-01    0.108E-01
RMM:   3    -0.436164676926E+03    0.16533E-03   -0.25575E-04 13129   0.544E-02    0.455E-02
RMM:   4    -0.436164692224E+03   -0.15298E-04   -0.18602E-04 13862   0.350E-02    0.583E-02
RMM:   5    -0.436164649366E+03    0.42858E-04   -0.92284E-05 11389   0.359E-02    0.305E-02
RMM:   6    -0.436164643188E+03    0.61778E-05   -0.44738E-05 12314   0.182E-02    0.211E-02
RMM:   7    -0.436164638596E+03    0.45925E-05   -0.13312E-05  9825   0.130E-02    0.123E-02
RMM:   8    -0.436164637693E+03    0.90317E-06   -0.46358E-06  7907   0.747E-03
  13 F= -.43616464E+03 E0= -.43616820E+03  d E =-.732541E-02
 curvature:  -1.38 expect dE=-0.740E-02 dE for cont linesearch -0.237E-07
 trial: gam= 0.56797 g(F)=  0.536E-02 g(S)=  0.000E+00 ort = 0.175E-04 (trialstep = 0.129E+01)
 search vector abs. value=  0.111E-01
 bond charge predicted
       N       E                     dE             d eps       ncg     rms          rms(c)
DAV:   1    -0.436168259800E+03   -0.36212E-02   -0.63405E-01 10848   0.208E+00    0.272E-01
RMM:   2    -0.436169509147E+03   -0.12493E-02   -0.14190E-02 11470   0.483E-01    0.286E-01
RMM:   3    -0.436169638586E+03   -0.12944E-03   -0.44517E-03 13096   0.238E-01    0.276E-01
RMM:   4    -0.436169664939E+03   -0.26353E-04   -0.26573E-03 12668   0.159E-01    0.253E-01
RMM:   5    -0.436169058040E+03    0.60690E-03   -0.12647E-03 11623   0.130E-01    0.133E-01
RMM:   6    -0.436168880487E+03    0.17755E-03   -0.65185E-04 13187   0.707E-02    0.911E-02
RMM:   7    -0.436168733924E+03    0.14656E-03   -0.24633E-04 12175   0.524E-02    0.443E-02
RMM:   8    -0.436168721203E+03    0.12721E-04   -0.96034E-05 12844   0.274E-02    0.312E-02
RMM:   9    -0.436168711114E+03    0.10089E-04   -0.32121E-05 11145   0.179E-02    0.148E-02
RMM:  10    -0.436168711095E+03    0.18648E-07   -0.16718E-05 10298   0.917E-03    0.979E-03
RMM:  11    -0.436168710287E+03    0.80856E-06   -0.48952E-06  7841   0.725E-03
  14 F= -.43616871E+03 E0= -.43617234E+03  d E =-.407259E-02
 trial-energy change:   -0.004073  1 .order   -0.004056   -0.006939   -0.001173
 step:   1.5500(harm=  1.5553)  dis= 0.01304  next Energy=  -436.168827 (dE=-0.419E-02)
 bond charge predicted
       N       E                     dE             d eps       ncg     rms          rms(c)
DAV:   1    -0.436168817453E+03   -0.10636E-03   -0.25261E-02 11304   0.415E-01    0.546E-02
RMM:   2    -0.436168865484E+03   -0.48030E-04   -0.56162E-04 11431   0.961E-02    0.560E-02
RMM:   3    -0.436168873931E+03   -0.84478E-05   -0.18420E-04 13089   0.478E-02    0.561E-02
RMM:   4    -0.436168860356E+03    0.13576E-04   -0.10266E-04 12421   0.320E-02    0.422E-02
RMM:   5    -0.436168842664E+03    0.17691E-04   -0.45314E-05 11011   0.252E-02    0.213E-02
RMM:   6    -0.436168845666E+03   -0.30012E-05   -0.21293E-05 10974   0.131E-02    0.189E-02
RMM:   7    -0.436168838747E+03    0.69182E-05   -0.90618E-06  9090   0.868E-03    0.102E-02
RMM:   8    -0.436168837623E+03    0.11248E-05   -0.33109E-06  7534   0.690E-03    0.697E-03
RMM:   9    -0.436168837269E+03    0.35353E-06   -0.12635E-06  6819   0.516E-03
  15 F= -.43616884E+03 E0= -.43617248E+03  d E =-.419958E-02
 curvature:  -1.61 expect dE=-0.570E-02 dE for cont linesearch -0.155E-06
 trial: gam= 0.65744 g(F)=  0.354E-02 g(S)=  0.000E+00 ort = 0.327E-04 (trialstep = 0.134E+01)
 search vector abs. value=  0.839E-02
 bond charge predicted
       N       E                     dE             d eps       ncg     rms          rms(c)
DAV:   1    -0.436171254939E+03   -0.24173E-02   -0.55434E-01 10848   0.193E+00    0.222E-01
RMM:   2    -0.436174016618E+03   -0.27617E-02   -0.14063E-02 11450   0.473E-01    0.415E-01
RMM:   3    -0.436171881663E+03    0.21350E-02   -0.33826E-03 12747   0.228E-01    0.178E-01
RMM:   4    -0.436172180764E+03   -0.29910E-03   -0.15249E-03 14376   0.977E-02    0.179E-01
RMM:   5    -0.436171812314E+03    0.36845E-03   -0.66658E-04 12640   0.793E-02    0.127E-01
RMM:   6    -0.436171733901E+03    0.78413E-04   -0.57706E-04 13155   0.692E-02    0.101E-01
RMM:   7    -0.436171625998E+03    0.10790E-03   -0.31413E-04 11731   0.645E-02    0.735E-02
RMM:   8    -0.436171563868E+03    0.62130E-04   -0.10934E-04 12048   0.386E-02    0.212E-02
RMM:   9    -0.436171560721E+03    0.31467E-05   -0.39984E-05 12657   0.149E-02    0.116E-02
RMM:  10    -0.436171560308E+03    0.41317E-06   -0.12000E-05  8959   0.107E-02    0.905E-03
RMM:  11    -0.436171559563E+03    0.74540E-06   -0.47348E-06  7847   0.686E-03
  16 F= -.43617156E+03 E0= -.43617515E+03  d E =-.272229E-02
 trial-energy change:   -0.002722  1 .order   -0.002703   -0.004781   -0.000624
 step:   1.5393(harm=  1.5456)  dis= 0.01168  next Energy=  -436.171605 (dE=-0.277E-02)
 bond charge predicted
       N       E                     dE             d eps       ncg     rms          rms(c)
DAV:   1    -0.436171604295E+03   -0.43987E-04   -0.11789E-02 11736   0.281E-01    0.330E-02
RMM:   2    -0.436171662845E+03   -0.58549E-04   -0.30108E-04 11514   0.691E-02    0.589E-02
RMM:   3    -0.436171619950E+03    0.42895E-04   -0.74920E-05 12594   0.329E-02    0.281E-02
RMM:   4    -0.436171624933E+03   -0.49831E-05   -0.32246E-05 12201   0.164E-02    0.282E-02
RMM:   5    -0.436171616931E+03    0.80021E-05   -0.14261E-05 10217   0.127E-02    0.182E-02
RMM:   6    -0.436171615766E+03    0.11651E-05   -0.13064E-05 10539   0.105E-02    0.149E-02
RMM:   7    -0.436171613410E+03    0.23564E-05   -0.63369E-06  8174   0.966E-03    0.109E-02
RMM:   8    -0.436171612250E+03    0.11593E-05   -0.24098E-06  7130   0.743E-03    0.380E-03
RMM:   9    -0.436171612271E+03   -0.20300E-07   -0.78550E-07  6626   0.359E-03
  17 F= -.43617161E+03 E0= -.43617520E+03  d E =-.277500E-02
 curvature:  -1.82 expect dE=-0.241E-02 dE for cont linesearch -0.424E-06
 trial: gam= 0.37681 g(F)=  0.132E-02 g(S)=  0.000E+00 ort = 0.442E-04 (trialstep = 0.138E+01)
 search vector abs. value=  0.255E-02
 bond charge predicted
       N       E                     dE             d eps       ncg     rms          rms(c)
DAV:   1    -0.436172503313E+03   -0.89106E-03   -0.19282E-01 10848   0.113E+00    0.126E-01
RMM:   2    -0.436173337493E+03   -0.83418E-03   -0.48549E-03 11636   0.264E-01    0.194E-01
RMM:   3    -0.436172862252E+03    0.47524E-03   -0.11374E-03 13217   0.124E-01    0.115E-01
RMM:   4    -0.436172879390E+03   -0.17138E-04   -0.55722E-04 14494   0.582E-02    0.112E-01
RMM:   5    -0.436172708469E+03    0.17092E-03   -0.26238E-04 12008   0.561E-02    0.657E-02
RMM:   6    -0.436172716065E+03   -0.75966E-05   -0.21386E-04 12807   0.446E-02    0.678E-02
RMM:   7    -0.436172667734E+03    0.48332E-04   -0.10013E-04 11121   0.393E-02    0.355E-02
RMM:   8    -0.436172654688E+03    0.13046E-04   -0.32551E-05 11994   0.188E-02    0.130E-02
RMM:   9    -0.436172652792E+03    0.18961E-05   -0.11105E-05  9414   0.835E-03    0.677E-03
RMM:  10    -0.436172652432E+03    0.35912E-06   -0.34610E-06  7541   0.630E-03
  18 F= -.43617265E+03 E0= -.43617622E+03  d E =-.104016E-02
 trial-energy change:   -0.001040  1 .order   -0.001035   -0.001855   -0.000216
 step:   1.5613(harm=  1.5649)  dis= 0.00654  next Energy=  -436.172666 (dE=-0.105E-02)
 bond charge predicted
       N       E                     dE             d eps       ncg     rms          rms(c)
DAV:   1    -0.436172665782E+03   -0.12991E-04   -0.32424E-03 11784   0.146E-01    0.171E-02
RMM:   2    -0.436172681705E+03   -0.15923E-04   -0.93380E-05 11848   0.356E-02    0.277E-02
RMM:   3    -0.436172672432E+03    0.92733E-05   -0.20979E-05 11437   0.172E-02    0.154E-02
RMM:   4    -0.436172673362E+03   -0.92992E-06   -0.99841E-06  9895   0.768E-03    0.149E-02
RMM:   5    -0.436172669859E+03    0.35028E-05   -0.36228E-06  7573   0.819E-03    0.902E-03
RMM:   6    -0.436172670280E+03   -0.42108E-06   -0.38757E-06  7755   0.789E-03
  19 F= -.43617267E+03 E0= -.43617623E+03  d E =-.105801E-02
 curvature:  -1.49 expect dE=-0.129E-02 dE for cont linesearch -0.656E-06
 trial: gam= 0.64632 g(F)=  0.866E-03 g(S)=  0.000E+00 ort = 0.335E-04 (trialstep = 0.142E+01)
 search vector abs. value=  0.197E-02
 bond charge predicted
       N       E                     dE             d eps       ncg     rms          rms(c)
DAV:   1    -0.436173371654E+03   -0.70179E-03   -0.15238E-01 10824   0.102E+00    0.106E-01
RMM:   2    -0.436173900058E+03   -0.52840E-03   -0.33929E-03 11278   0.241E-01    0.165E-01
RMM:   3    -0.436173630864E+03    0.26919E-03   -0.85818E-04 13807   0.101E-01    0.918E-02
RMM:   4    -0.436173632447E+03   -0.15830E-05   -0.42529E-04 14481   0.493E-02    0.857E-02
RMM:   5    -0.436173539012E+03    0.93435E-04   -0.25599E-04 11972   0.550E-02    0.584E-02
RMM:   6    -0.436173522336E+03    0.16676E-04   -0.13057E-04 12780   0.357E-02    0.422E-02
RMM:   7    -0.436173504369E+03    0.17967E-04   -0.53507E-05 11190   0.288E-02    0.276E-02
RMM:   8    -0.436173498463E+03    0.59057E-05   -0.16928E-05 10261   0.146E-02    0.171E-02
RMM:   9    -0.436173494912E+03    0.35506E-05   -0.53092E-06  7994   0.822E-03    0.528E-03
RMM:  10    -0.436173495141E+03   -0.22834E-06   -0.29640E-06  7473   0.535E-03
  20 F= -.43617350E+03 E0= -.43617706E+03  d E =-.824860E-03
 trial-energy change:   -0.000825  1 .order   -0.000825   -0.001259   -0.000391
 step:   2.0578(harm=  2.0578)  dis= 0.00813  next Energy=  -436.173583 (dE=-0.913E-03)
 bond charge predicted
       N       E                     dE             d eps       ncg     rms          rms(c)
DAV:   1    -0.436173562197E+03   -0.67285E-04   -0.31009E-02 10920   0.459E-01    0.486E-02
RMM:   2    -0.436173668769E+03   -0.10657E-03   -0.70642E-04 11252   0.111E-01    0.746E-02
RMM:   3    -0.436173618751E+03    0.50019E-04   -0.18167E-04 13777   0.465E-02    0.433E-02
RMM:   4    -0.436173614538E+03    0.42125E-05   -0.82308E-05 13975   0.211E-02    0.366E-02
RMM:   5    -0.436173598439E+03    0.16099E-04   -0.49529E-05 11812   0.238E-02    0.278E-02
RMM:   6    -0.436173595429E+03    0.30096E-05   -0.28127E-05 11742   0.174E-02    0.215E-02
RMM:   7    -0.436173590503E+03    0.49266E-05   -0.12176E-05  9784   0.142E-02    0.133E-02
RMM:   8    -0.436173589285E+03    0.12175E-05   -0.37509E-06  7556   0.776E-03    0.883E-03
RMM:   9    -0.436173588431E+03    0.85428E-06   -0.12866E-06  6896   0.557E-03
  21 F= -.43617359E+03 E0= -.43617716E+03  d E =-.918151E-03
 curvature:  -2.29 expect dE=-0.148E-02 dE for cont linesearch -0.135E-06
 trial: gam= 0.74837 g(F)=  0.645E-03 g(S)=  0.000E+00 ort = 0.108E-04 (trialstep = 0.155E+01)
 search vector abs. value=  0.177E-02
 bond charge predicted
       N       E                     dE             d eps       ncg     rms          rms(c)
DAV:   1    -0.436173978407E+03   -0.38912E-03   -0.16514E-01 10824   0.105E+00    0.108E-01
RMM:   2    -0.436174303079E+03   -0.32467E-03   -0.34377E-03 11177   0.243E-01    0.128E-01
RMM:   3    -0.436174354958E+03   -0.51879E-04   -0.10139E-03 14213   0.962E-02    0.109E-01
RMM:   4    -0.436174239497E+03    0.11546E-03   -0.35998E-04 14143   0.499E-02    0.795E-02
RMM:   5    -0.436174175407E+03    0.64091E-04   -0.30501E-04 11596   0.634E-02    0.610E-02
RMM:   6    -0.436174159265E+03    0.16141E-04   -0.12115E-04 12136   0.385E-02    0.495E-02
RMM:   7    -0.436174138560E+03    0.20705E-04   -0.56018E-05 11206   0.286E-02    0.271E-02
RMM:   8    -0.436174130744E+03    0.78162E-05   -0.15451E-05 10222   0.118E-02    0.120E-02
RMM:   9    -0.436174129710E+03    0.10339E-05   -0.67079E-06  8068   0.758E-03    0.722E-03
RMM:  10    -0.436174129391E+03    0.31861E-06   -0.23207E-06  7309   0.566E-03
  22 F= -.43617413E+03 E0= -.43617775E+03  d E =-.540960E-03
 trial-energy change:   -0.000541  1 .order   -0.000542   -0.001009   -0.000074
 step:   1.6692(harm=  1.6692)  dis= 0.00608  next Energy=  -436.174133 (dE=-0.545E-03)
 bond charge predicted
       N       E                     dE             d eps       ncg     rms          rms(c)
DAV:   1    -0.436174131993E+03   -0.22830E-05   -0.10516E-03 11880   0.838E-02    0.946E-03
RMM:   2    -0.436174134288E+03   -0.22951E-05   -0.25909E-05 11513   0.197E-02    0.114E-02
RMM:   3    -0.436174134278E+03    0.10201E-07   -0.61351E-06  8419   0.943E-03    0.943E-03
RMM:   4    -0.436174134840E+03   -0.56237E-06   -0.26246E-06  7268   0.591E-03    0.800E-03
RMM:   5    -0.436174133395E+03    0.14449E-05   -0.19366E-06  7079   0.625E-03    0.517E-03
RMM:   6    -0.436174133358E+03    0.37859E-07   -0.95157E-07  6627   0.469E-03
  23 F= -.43617413E+03 E0= -.43617776E+03  d E =-.544927E-03
 curvature:  -2.26 expect dE=-0.664E-03 dE for cont linesearch -0.880E-07
 trial: gam= 0.45354 g(F)=  0.294E-03 g(S)=  0.000E+00 ort = 0.829E-05 (trialstep = 0.157E+01)
 search vector abs. value=  0.665E-03
 bond charge predicted
       N       E                     dE             d eps       ncg     rms          rms(c)
DAV:   1    -0.436174302135E+03   -0.16874E-03   -0.64227E-02 10824   0.663E-01    0.658E-02
RMM:   2    -0.436174427442E+03   -0.12531E-03   -0.13895E-03 11160   0.158E-01    0.777E-02
RMM:   3    -0.436174460738E+03   -0.33296E-04   -0.39492E-04 14268   0.614E-02    0.651E-02
RMM:   4    -0.436174402564E+03    0.58174E-04   -0.91898E-05 14089   0.208E-02    0.352E-02
RMM:   5    -0.436174393932E+03    0.86321E-05   -0.91981E-05 12492   0.304E-02    0.353E-02
RMM:   6    -0.436174386698E+03    0.72342E-05   -0.37182E-05 11548   0.223E-02    0.284E-02
RMM:   7    -0.436174376302E+03    0.10396E-04   -0.15006E-05 10036   0.149E-02    0.147E-02
RMM:   8    -0.436174374193E+03    0.21092E-05   -0.51098E-06  7876   0.903E-03    0.698E-03
RMM:   9    -0.436174373847E+03    0.34535E-06   -0.18671E-06  7129   0.603E-03
  24 F= -.43617437E+03 E0= -.43617801E+03  d E =-.240490E-03
 trial-energy change:   -0.000240  1 .order   -0.000243   -0.000468   -0.000018
 step:   1.6321(harm=  1.6321)  dis= 0.00344  next Energy=  -436.174376 (dE=-0.243E-03)
 reached required accuracy - stopping structural energy minimisation
 augmentation electrons   18.376590712512993     
 soft         electrons   184.68425939305564     
 total        electrons   203.06085010556865     
 augmentation electrons   18.376590712512993     
 soft         electrons   184.68425939305564     
 total        electrons   203.06085010556865     
 augmentation electrons   18.376590712512993     
 soft         electrons   184.68425939305564     
 total        electrons   203.06085010556865     
 augmentation electrons   18.376590712512993     
 soft         electrons   184.68425939305564     
 total        electrons   203.06085010556865     
 augmentation electrons   18.376590712512993     
 soft         electrons   184.68425939305564     
 total        electrons   203.06085010556865     
 augmentation electrons   18.376590712512993     
 soft         electrons   184.68425939305564     
 total        electrons   203.06085010556865     
 augmentation electrons   18.376590712512993     
 soft         electrons   184.68425939305564     
 total        electrons   203.06085010556865     
 augmentation electrons   18.376590712512993     
 soft         electrons   184.68425939305564     
 total        electrons   203.06085010556865     
 augmentation electrons   18.376590712512993     
 soft         electrons   184.68425939305564     
 total        electrons   203.06085010556865     
 augmentation electrons   18.376590712512993     
 soft         electrons   184.68425939305564     
 total        electrons   203.06085010556865     
 augmentation electrons   18.376590712512993     
 soft         electrons   184.68425939305564     
 total        electrons   203.06085010556865     
 augmentation electrons   18.376590712512993     
 soft         electrons   184.68425939305564     
 total        electrons   203.06085010556865     
 augmentation electrons   18.376590712512993     
 soft         electrons   184.68425939305564     
 total        electrons   203.06085010556865     
 augmentation electrons   18.376590712512993     
 soft         electrons   184.68425939305564     
 total        electrons   203.06085010556865     
 augmentation electrons   18.376590712512993     
 soft         electrons   184.68425939305564     
 total        electrons   203.06085010556865     
 augmentation electrons   18.376590712512993     
 soft         electrons   184.68425939305564     
 total        electrons   203.06085010556865     
 augmentation electrons   18.376590712512993     
 soft         electrons   184.68425939305564     
 total        electrons   203.06085010556865     
 augmentation electrons   18.376590712512993     
 soft         electrons   184.68425939305564     
 total        electrons   203.06085010556865     
 augmentation electrons   18.376590712512993     
 soft         electrons   184.68425939305564     
 total        electrons   203.06085010556865     
 augmentation electrons   18.376590712512993     
 soft         electrons   184.68425939305564     
 total        electrons   203.06085010556865     
 augmentation electrons   18.376590712512993     
 soft         electrons   184.68425939305564     
 total        electrons   203.06085010556865     
 augmentation electrons   18.376590712512993     
 soft         electrons   184.68425939305564     
 total        electrons   203.06085010556865     
 augmentation electrons   18.376590712512993     
 soft         electrons   184.68425939305564     
 total        electrons   203.06085010556865     
 augmentation electrons   18.376590712512993     
 soft         electrons   184.68425939305564     
 total        electrons   203.06085010556865     
 augmentation electrons   18.376590712512993     
 soft         electrons   184.68425939305564     
 total        electrons   203.06085010556865     
 augmentation electrons   18.376590712512993     
 soft         electrons   184.68425939305564     
 total        electrons   203.06085010556865     
 augmentation electrons   18.376590712512993     
 soft         electrons   184.68425939305564     
 total        electrons   203.06085010556865     
 augmentation electrons   18.376590712512993     
 soft         electrons   184.68425939305564     
 total        electrons   203.06085010556865     
 augmentation electrons   18.376590712512993     
 soft         electrons   184.68425939305564     
 total        electrons   203.06085010556865     
 augmentation electrons   18.376590712512993     
 soft         electrons   184.68425939305564     
 total        electrons   203.06085010556865     
 augmentation electrons   18.376590712512993     
 soft         electrons   184.68425939305564     
 total        electrons   203.06085010556865     
 augmentation electrons   18.376590712512993     
 soft         electrons   184.68425939305564     
 total        electrons   203.06085010556865     
 augmentation electrons   18.376590712512993     
 soft         electrons   184.68425939305564     
 total        electrons   203.06085010556865     
 augmentation electrons   18.376590712512993     
 soft         electrons   184.68425939305564     
 total        electrons   203.06085010556865     
 augmentation electrons   18.376590712512993     
 soft         electrons   184.68425939305564     
 total        electrons   203.06085010556865     
 augmentation electrons   18.376590712512993     
 soft         electrons   184.68425939305564     
 total        electrons   203.06085010556865     
 augmentation electrons   18.376590712512993     
 soft         electrons   184.68425939305564     
 total        electrons   203.06085010556865     
 augmentation electrons   18.376590712512993     
 soft         electrons   184.68425939305564     
 total        electrons   203.06085010556865     
 augmentation electrons   18.376590712512993     
 soft         electrons   184.68425939305564     
 total        electrons   203.06085010556865     
 augmentation electrons   18.376590712512993     
 soft         electrons   184.68425939305564     
 total        electrons   203.06085010556865     
 augmentation electrons   18.376590712512993     
 soft         electrons   184.68425939305564     
 total        electrons   203.06085010556865     
 augmentation electrons   18.376590712512993     
 soft         electrons   184.68425939305564     
 total        electrons   203.06085010556865     
 augmentation electrons   18.376590712512993     
 soft         electrons   184.68425939305564     
 total        electrons   203.06085010556865     
 augmentation electrons   18.376590712512993     
 soft         electrons   184.68425939305564     
 total        electrons   203.06085010556865     
 augmentation electrons   18.376590712512993     
 soft         electrons   184.68425939305564     
 total        electrons   203.06085010556865     
 augmentation electrons   18.376590712512993     
 soft         electrons   184.68425939305564     
 total        electrons   203.06085010556865     
 augmentation electrons   18.376590712512993     
 soft         electrons   184.68425939305564     
 total        electrons   203.06085010556865     
 augmentation electrons   18.376590712512993     
 soft         electrons   184.68425939305564     
 total        electrons   203.06085010556865     
 augmentation electrons   18.376590712512993     
 soft         electrons   184.68425939305564     
 total        electrons   203.06085010556865     
 augmentation electrons   18.376590712512993     
 soft         electrons   184.68425939305564     
 total        electrons   203.06085010556865     
 augmentation electrons   18.376590712512993     
 soft         electrons   184.68425939305564     
 total        electrons   203.06085010556865     
 augmentation electrons   18.376590712512993     
 soft         electrons   184.68425939305564     
 total        electrons   203.06085010556865     
 augmentation electrons   18.376590712512993     
 soft         electrons   184.68425939305564     
 total        electrons   203.06085010556865     
 augmentation electrons   18.376590712512993     
 soft         electrons   184.68425939305564     
 total        electrons   203.06085010556865     
Note: The following floating-point exceptions are signalling: IEEE_OVERFLOW_FLAG
Note: The following floating-point exceptions are signalling: IEEE_OVERFLOW_FLAG
Note: The following floating-point exceptions are signalling: IEEE_OVERFLOW_FLAG
Note: The following floating-point exceptions are signalling: IEEE_OVERFLOW_FLAG
Note: The following floating-point exceptions are signalling: IEEE_OVERFLOW_FLAG
Note: The following floating-point exceptions are signalling: IEEE_OVERFLOW_FLAG
Note: The following floating-point exceptions are signalling: IEEE_OVERFLOW_FLAG
Note: The following floating-point exceptions are signalling: IEEE_OVERFLOW_FLAG
Note: The following floating-point exceptions are signalling: IEEE_OVERFLOW_FLAG
Note: The following floating-point exceptions are signalling: IEEE_OVERFLOW_FLAG
Note: The following floating-point exceptions are signalling: IEEE_OVERFLOW_FLAG
Note: The following floating-point exceptions are signalling: IEEE_OVERFLOW_FLAG
Note: The following floating-point exceptions are signalling: IEEE_OVERFLOW_FLAG
Note: The following floating-point exceptions are signalling: IEEE_OVERFLOW_FLAG
Note: The following floating-point exceptions are signalling: IEEE_OVERFLOW_FLAG
Note: The following floating-point exceptions are signalling: IEEE_OVERFLOW_FLAG
Note: The following floating-point exceptions are signalling: IEEE_OVERFLOW_FLAG
Note: The following floating-point exceptions are signalling: IEEE_OVERFLOW_FLAG
Note: The following floating-point exceptions are signalling: IEEE_OVERFLOW_FLAG
Note: The following floating-point exceptions are signalling: IEEE_OVERFLOW_FLAG
Note: The following floating-point exceptions are signalling: IEEE_OVERFLOW_FLAG
Note: The following floating-point exceptions are signalling: IEEE_OVERFLOW_FLAG
Note: The following floating-point exceptions are signalling: IEEE_OVERFLOW_FLAG
Note: The following floating-point exceptions are signalling: IEEE_OVERFLOW_FLAG
Note: The following floating-point exceptions are signalling: IEEE_OVERFLOW_FLAG
Note: The following floating-point exceptions are signalling: IEEE_OVERFLOW_FLAG
Note: The following floating-point exceptions are signalling: IEEE_OVERFLOW_FLAG
Note: The following floating-point exceptions are signalling: IEEE_OVERFLOW_FLAG
Note: The following floating-point exceptions are signalling: IEEE_OVERFLOW_FLAG
Note: The following floating-point exceptions are signalling: IEEE_OVERFLOW_FLAG
Note: The following floating-point exceptions are signalling: IEEE_OVERFLOW_FLAG
Note: The following floating-point exceptions are signalling: IEEE_OVERFLOW_FLAG
Note: The following floating-point exceptions are signalling: IEEE_OVERFLOW_FLAG
Note: The following floating-point exceptions are signalling: IEEE_OVERFLOW_FLAG
Note: The following floating-point exceptions are signalling: IEEE_OVERFLOW_FLAG
Note: The following floating-point exceptions are signalling: IEEE_OVERFLOW_FLAG
Note: The following floating-point exceptions are signalling: IEEE_OVERFLOW_FLAG
Note: The following floating-point exceptions are signalling: IEEE_OVERFLOW_FLAG
Note: The following floating-point exceptions are signalling: IEEE_OVERFLOW_FLAG
Note: The following floating-point exceptions are signalling: IEEE_OVERFLOW_FLAG
Note: The following floating-point exceptions are signalling: IEEE_OVERFLOW_FLAG
Note: The following floating-point exceptions are signalling: IEEE_OVERFLOW_FLAG
Note: The following floating-point exceptions are signalling: IEEE_OVERFLOW_FLAG
Note: The following floating-point exceptions are signalling: IEEE_OVERFLOW_FLAG
Note: The following floating-point exceptions are signalling: IEEE_OVERFLOW_FLAG
Note: The following floating-point exceptions are signalling: IEEE_OVERFLOW_FLAG
Note: The following floating-point exceptions are signalling: IEEE_OVERFLOW_FLAG
Note: The following floating-point exceptions are signalling: IEEE_OVERFLOW_FLAG
Note: The following floating-point exceptions are signalling: IEEE_OVERFLOW_FLAG
Note: The following floating-point exceptions are signalling: IEEE_OVERFLOW_FLAG
Note: The following floating-point exceptions are signalling: IEEE_OVERFLOW_FLAG
Note: The following floating-point exceptions are signalling: IEEE_OVERFLOW_FLAG
Note: The following floating-point exceptions are signalling: IEEE_OVERFLOW_FLAG
Note: The following floating-point exceptions are signalling: IEEE_OVERFLOW_FLAG
