   23   23    1    1
  0.2549686E+02  0.6078000E-09  0.6078000E-09  0.1833000E-08  0.5000000E-15
   1.0000000000000000E-004
  CAR 
 Name                                    
     89     25     60

  0.3742002E-15  0.3742002E-15  0.1262379E-14  0.1234568E-01
    1      -14.013324   1.000000
    2      -11.732681   1.000000
    3      -11.525513   1.000000
    4      -11.107579   1.000000
    5      -11.032869   1.000000
    6      -10.335758   1.000000
    7      -10.248795   1.000000
    8       -9.891671   1.000000
    9       -9.260513   1.000000
   10       -8.684428   1.000000
   11       -8.674438   1.000000
   12       -7.803467   1.000000
   13       -7.783294   1.000000
   14       -7.706052   1.000000
   15       -7.422796   1.000000
   16       -6.487030   1.000000
   17       -6.183140   1.000000
   18       -6.031466   1.000000
   19       -5.303742   1.000000
   20       -5.077644   1.000000
   21       -5.073279   1.000000
   22       -4.847364   1.000000
   23       -4.662497   1.000000
   24       -4.638630   1.000000
   25       -4.497767   1.000000
   26       -4.238110   1.000000
   27       -4.223427   1.000000
   28       -3.936911   1.000000
   29       -3.831812   1.000000
   30       -3.652582   1.000000
   31       -3.471148   1.000000
   32       -3.385012   1.000000
   33       -3.343924   1.000000
   34       -1.909479   1.000000
   35       -1.869892   1.000000
   36       -1.806705   1.000000
   37       -1.682770   1.000000
   38       -1.670091   1.000000
   39       -1.543279   1.000000
   40       -1.083622   1.023828
   41       -1.000858   1.034955
   42       -0.970716   1.026988
   43       -0.826796   0.741219
   44       -0.750916   0.432534
   45       -0.745859   0.411442
   46        0.174266  -0.000000
   47        0.191643  -0.000000
   48        0.384489  -0.000000
   49        0.415332  -0.000000
   50        0.443283  -0.000000
   51        0.534503  -0.000000
   52        0.592842  -0.000000
   53        0.604945  -0.000000
   54        0.674040  -0.000000
   55        1.021283  -0.000000
   56        1.082894  -0.000000
   57        1.109459  -0.000000
   58        1.212317  -0.000000
   59        2.015517  -0.000000
   60        3.414898  -0.000000

  0.1111111E+00  0.3756941E-15  0.1262379E-14  0.4938272E-01
    1      -13.964453   1.000000
    2      -11.695995   1.000000
    3      -11.635584   1.000000
    4      -11.223336   1.000000
    5      -11.155656   1.000000
    6      -10.197862   1.000000
    7      -10.158927   1.000000
    8       -9.740171   1.000000
    9       -9.264555   1.000000
   10       -8.834715   1.000000
   11       -8.710891   1.000000
   12       -7.733258   1.000000
   13       -7.661119   1.000000
   14       -7.560502   1.000000
   15       -7.279062   1.000000
   16       -6.515706   1.000000
   17       -6.268060   1.000000
   18       -6.050307   1.000000
   19       -5.252742   1.000000
   20       -5.148114   1.000000
   21       -5.051418   1.000000
   22       -4.844643   1.000000
   23       -4.731831   1.000000
   24       -4.638631   1.000000
   25       -4.418107   1.000000
   26       -4.274771   1.000000
   27       -4.218042   1.000000
   28       -4.104215   1.000000
   29       -4.021799   1.000000
   30       -3.582620   1.000000
   31       -3.452221   1.000000
   32       -3.313156   1.000000
   33       -3.225350   1.000000
   34       -2.049175   1.000000
   35       -1.933334   1.000000
   36       -1.912941   1.000000
   37       -1.759092   1.000000
   38       -1.587849   1.000000
   39       -1.475732   1.000003
   40       -1.295377   1.000599
   41       -1.037590   1.033331
   42       -0.957043   1.019216
   43       -0.901779   0.950583
   44       -0.882634   0.910175
   45       -0.790195   0.597763
   46       -0.035604  -0.000001
   47        0.127247  -0.000000
   48        0.379478  -0.000000
   49        0.425276  -0.000000
   50        0.436007  -0.000000
   51        0.466109  -0.000000
   52        0.596975  -0.000000
   53        0.692092  -0.000000
   54        0.813086  -0.000000
   55        0.907588  -0.000000
   56        1.032493  -0.000000
   57        1.132863  -0.000000
   58        1.759360  -0.000000
   59        2.237841  -0.000000
   60        3.339209  -0.000000

  0.2222222E+00  0.3431732E-15  0.1262379E-14  0.4938272E-01
    1      -13.820646   1.000000
    2      -11.987811   1.000000
    3      -11.588055   1.000000
    4      -11.377673   1.000000
    5      -11.283420   1.000000
    6      -10.164474   1.000000
    7       -9.929389   1.000000
    8       -9.570762   1.000000
    9       -9.152020   1.000000
   10       -8.829296   1.000000
   11       -8.795735   1.000000
   12       -7.578790   1.000000
   13       -7.425240   1.000000
   14       -7.323361   1.000000
   15       -6.867642   1.000000
   16       -6.623995   1.000000
   17       -6.483380   1.000000
   18       -6.022324   1.000000
   19       -5.395852   1.000000
   20       -5.132562   1.000000
   21       -5.044286   1.000000
   22       -4.898811   1.000000
   23       -4.864163   1.000000
   24       -4.683026   1.000000
   25       -4.498223   1.000000
   26       -4.386333   1.000000
   27       -4.223763   1.000000
   28       -4.199821   1.000000
   29       -4.154737   1.000000
   30       -3.488707   1.000000
   31       -3.433954   1.000000
   32       -3.122120   1.000000
   33       -3.003913   1.000000
   34       -2.393696   1.000000
   35       -2.127300   1.000000
   36       -2.001493   1.000000
   37       -1.752265   1.000000
   38       -1.686162   1.000000
   39       -1.615421   1.000000
   40       -1.347788   1.000158
   41       -1.317708   1.000346
   42       -1.245736   1.001834
   43       -1.173805   1.007141
   44       -0.994637   1.034176
   45       -0.733062   0.359000
   46       -0.277911  -0.001475
   47        0.017832  -0.000000
   48        0.245515  -0.000000
   49        0.309998  -0.000000
   50        0.340045  -0.000000
   51        0.394915  -0.000000
   52        0.498234  -0.000000
   53        0.539302  -0.000000
   54        0.754970  -0.000000
   55        0.882040  -0.000000
   56        1.004247  -0.000000
   57        1.024746  -0.000000
   58        1.207960  -0.000000
   59        1.715952  -0.000000
   60        2.126375  -0.000000

  0.3333333E+00  0.3568756E-15  0.1262379E-14  0.4938272E-01
    1      -13.591345   1.000000
    2      -12.422977   1.000000
    3      -11.528539   1.000000
    4      -11.392649   1.000000
    5      -11.329853   1.000000
    6      -10.416818   1.000000
    7       -9.620987   1.000000
    8       -9.500379   1.000000
    9       -9.095694   1.000000
   10       -8.916444   1.000000
   11       -8.268343   1.000000
   12       -7.422860   1.000000
   13       -7.186250   1.000000
   14       -7.000212   1.000000
   15       -6.824562   1.000000
   16       -6.741899   1.000000
   17       -6.462140   1.000000
   18       -5.900847   1.000000
   19       -5.785971   1.000000
   20       -5.314314   1.000000
   21       -5.172102   1.000000
   22       -5.088806   1.000000
   23       -4.783647   1.000000
   24       -4.750145   1.000000
   25       -4.632547   1.000000
   26       -4.502335   1.000000
   27       -4.228857   1.000000
   28       -4.160718   1.000000
   29       -3.971777   1.000000
   30       -3.513817   1.000000
   31       -3.246924   1.000000
   32       -2.955485   1.000000
   33       -2.888136   1.000000
   34       -2.567023   1.000000
   35       -2.298896   1.000000
   36       -2.151629   1.000000
   37       -1.980870   1.000000
   38       -1.828032   1.000000
   39       -1.741856   1.000000
   40       -1.626940   1.000000
   41       -1.536626   1.000000
   42       -1.446512   1.000008
   43       -1.338775   1.000201
   44       -0.993014   1.033907
   45       -0.888049   0.922539
   46       -0.265266  -0.001116
   47       -0.197033  -0.000211
   48       -0.041310  -0.000002
   49        0.148408  -0.000000
   50        0.168235  -0.000000
   51        0.221359  -0.000000
   52        0.315394  -0.000000
   53        0.446155  -0.000000
   54        0.602971  -0.000000
   55        0.740606  -0.000000
   56        1.028579  -0.000000
   57        1.058251  -0.000000
   58        1.332543  -0.000000
   59        1.934491  -0.000000
   60        2.287885  -0.000000

  0.4444444E+00  0.3276888E-15  0.1262379E-14  0.4938272E-01
    1      -13.308111   1.000000
    2      -12.819263   1.000000
    3      -11.555226   1.000000
    4      -11.445953   1.000000
    5      -11.100585   1.000000
    6      -10.742052   1.000000
    7       -9.475163   1.000000
    8       -9.332024   1.000000
    9       -9.081044   1.000000
   10       -9.000993   1.000000
   11       -7.566767   1.000000
   12       -7.354299   1.000000
   13       -7.157407   1.000000
   14       -6.883031   1.000000
   15       -6.834845   1.000000
   16       -6.816929   1.000000
   17       -6.543167   1.000000
   18       -6.090009   1.000000
   19       -5.698929   1.000000
   20       -5.468211   1.000000
   21       -5.380780   1.000000
   22       -5.162532   1.000000
   23       -4.852584   1.000000
   24       -4.778153   1.000000
   25       -4.553014   1.000000
   26       -4.527013   1.000000
   27       -4.270026   1.000000
   28       -4.116601   1.000000
   29       -3.802274   1.000000
   30       -3.483592   1.000000
   31       -3.165742   1.000000
   32       -3.061483   1.000000
   33       -2.746194   1.000000
   34       -2.475040   1.000000
   35       -2.362867   1.000000
   36       -2.226876   1.000000
   37       -2.188576   1.000000
   38       -2.062494   1.000000
   39       -1.887824   1.000000
   40       -1.825843   1.000000
   41       -1.615954   1.000000
   42       -1.508201   1.000001
   43       -1.474593   1.000003
   44       -1.038753   1.033154
   45       -0.770612   0.515633
   46       -0.391371  -0.011628
   47       -0.345168  -0.005539
   48       -0.183928  -0.000149
   49       -0.131205  -0.000033
   50        0.037694  -0.000000
   51        0.068718  -0.000000
   52        0.314120  -0.000000
   53        0.348855  -0.000000
   54        0.666483  -0.000000
   55        0.726229  -0.000000
   56        0.918806  -0.000000
   57        0.987783  -0.000000
   58        1.399020  -0.000000
   59        2.307041  -0.000000
   60        2.326849  -0.000000

  0.1111111E+00  0.1111111E+00  0.1262379E-14  0.2469136E-01
    1      -13.868463   1.000000
    2      -11.823474   1.000000
    3      -11.648317   1.000000
    4      -11.502146   1.000000
    5      -11.099456   1.000000
    6      -10.124721   1.000000
    7      -10.075517   1.000000
    8       -9.572812   1.000000
    9       -9.185528   1.000000
   10       -8.943420   1.000000
   11       -8.665176   1.000000
   12       -7.799920   1.000000
   13       -7.392105   1.000000
   14       -7.324136   1.000000
   15       -7.020929   1.000000
   16       -6.618518   1.000000
   17       -6.373014   1.000000
   18       -6.064363   1.000000
   19       -5.329175   1.000000
   20       -5.172375   1.000000
   21       -5.040274   1.000000
   22       -4.846488   1.000000
   23       -4.782408   1.000000
   24       -4.654856   1.000000
   25       -4.439973   1.000000
   26       -4.358052   1.000000
   27       -4.212952   1.000000
   28       -4.212257   1.000000
   29       -4.196024   1.000000
   30       -3.487353   1.000000
   31       -3.418604   1.000000
   32       -3.271294   1.000000
   33       -3.023434   1.000000
   34       -2.255514   1.000000
   35       -2.071323   1.000000
   36       -1.904646   1.000000
   37       -1.874630   1.000000
   38       -1.669144   1.000000
   39       -1.550241   1.000000
   40       -1.308108   1.000439
   41       -1.281117   1.000838
   42       -1.117548   1.016295
   43       -1.111873   1.017481
   44       -0.997659   1.034603
   45       -0.678476   0.163276
   46       -0.183748  -0.000148
   47        0.018528  -0.000000
   48        0.222217  -0.000000
   49        0.287470  -0.000000
   50        0.390817  -0.000000
   51        0.434178  -0.000000
   52        0.504622  -0.000000
   53        0.753766  -0.000000
   54        0.817722  -0.000000
   55        0.979090  -0.000000
   56        1.009587  -0.000000
   57        1.036410  -0.000000
   58        1.077127  -0.000000
   59        1.923805  -0.000000
   60        2.137641  -0.000000

  0.2222222E+00  0.1111111E+00  0.1262379E-14  0.4938272E-01
    1      -13.681806   1.000000
    2      -12.183629   1.000000
    3      -11.801925   1.000000
    4      -11.429040   1.000000
    5      -11.062017   1.000000
    6      -10.240052   1.000000
    7       -9.946574   1.000000
    8       -9.630263   1.000000
    9       -8.957125   1.000000
   10       -8.676572   1.000000
   11       -8.548142   1.000000
   12       -7.778984   1.000000
   13       -7.121619   1.000000
   14       -7.007832   1.000000
   15       -6.905660   1.000000
   16       -6.533724   1.000000
   17       -6.470522   1.000000
   18       -6.073827   1.000000
   19       -5.674152   1.000000
   20       -5.177824   1.000000
   21       -5.097310   1.000000
   22       -5.036815   1.000000
   23       -4.885834   1.000000
   24       -4.708889   1.000000
   25       -4.610003   1.000000
   26       -4.467812   1.000000
   27       -4.275411   1.000000
   28       -4.150505   1.000000
   29       -4.009132   1.000000
   30       -3.466487   1.000000
   31       -3.285348   1.000000
   32       -3.150517   1.000000
   33       -2.797861   1.000000
   34       -2.540460   1.000000
   35       -2.158059   1.000000
   36       -2.147857   1.000000
   37       -1.863886   1.000000
   38       -1.809853   1.000000
   39       -1.703848   1.000000
   40       -1.645701   1.000000
   41       -1.424433   1.000017
   42       -1.374480   1.000075
   43       -1.282694   1.000808
   44       -1.095275   1.021146
   45       -0.617681   0.025032
   46       -0.272473  -0.001310
   47       -0.141065  -0.000045
   48       -0.076331  -0.000006
   49        0.070458  -0.000000
   50        0.265448  -0.000000
   51        0.308295  -0.000000
   52        0.460934  -0.000000
   53        0.581893  -0.000000
   54        0.682026  -0.000000
   55        0.803517  -0.000000
   56        0.990927  -0.000000
   57        1.132917  -0.000000
   58        1.166094  -0.000000
   59        1.294189  -0.000000
   60        2.064994  -0.000000

  0.3333333E+00  0.1111111E+00  0.1262379E-14  0.4938272E-01
    1      -13.419483   1.000000
    2      -12.604385   1.000000
    3      -11.905004   1.000000
    4      -11.208282   1.000000
    5      -11.065275   1.000000
    6      -10.550426   1.000000
    7       -9.805720   1.000000
    8       -9.612388   1.000000
    9       -8.811466   1.000000
   10       -8.684068   1.000000
   11       -7.912360   1.000000
   12       -7.644610   1.000000
   13       -7.135156   1.000000
   14       -6.901488   1.000000
   15       -6.666705   1.000000
   16       -6.632095   1.000000
   17       -6.456665   1.000000
   18       -5.993494   1.000000
   19       -5.891868   1.000000
   20       -5.479911   1.000000
   21       -5.294327   1.000000
   22       -5.198083   1.000000
   23       -4.975055   1.000000
   24       -4.726684   1.000000
   25       -4.621117   1.000000
   26       -4.515211   1.000000
   27       -4.230743   1.000000
   28       -4.063409   1.000000
   29       -3.811503   1.000000
   30       -3.459692   1.000000
   31       -3.177344   1.000000
   32       -3.063334   1.000000
   33       -2.759904   1.000000
   34       -2.540045   1.000000
   35       -2.378239   1.000000
   36       -2.247898   1.000000
   37       -2.065297   1.000000
   38       -1.950721   1.000000
   39       -1.784206   1.000000
   40       -1.722396   1.000000
   41       -1.626708   1.000000
   42       -1.569272   1.000000
   43       -1.384519   1.000057
   44       -1.115728   1.016671
   45       -0.726088   0.331169
   46       -0.405350  -0.014132
   47       -0.390631  -0.011504
   48       -0.142483  -0.000046
   49       -0.046320  -0.000002
   50        0.110845  -0.000000
   51        0.150873  -0.000000
   52        0.282370  -0.000000
   53        0.480002  -0.000000
   54        0.577560  -0.000000
   55        0.745693  -0.000000
   56        0.913474  -0.000000
   57        1.117390  -0.000000
   58        1.247640  -0.000000
   59        1.449417  -0.000000
   60        2.099563  -0.000000

  0.4444444E+00  0.1111111E+00  0.1262379E-14  0.4938272E-01
    1      -13.189250   1.000000
    2      -12.893255   1.000000
    3      -11.937586   1.000000
    4      -11.073172   1.000000
    5      -10.986209   1.000000
    6      -10.810890   1.000000
    7       -9.800767   1.000000
    8       -9.508605   1.000000
    9       -8.881925   1.000000
   10       -8.588178   1.000000
   11       -7.567065   1.000000
   12       -7.342832   1.000000
   13       -7.184575   1.000000
   14       -7.104764   1.000000
   15       -6.903730   1.000000
   16       -6.486158   1.000000
   17       -6.308869   1.000000
   18       -6.190839   1.000000
   19       -5.693156   1.000000
   20       -5.678191   1.000000
   21       -5.458862   1.000000
   22       -5.107958   1.000000
   23       -5.011430   1.000000
   24       -4.944482   1.000000
   25       -4.602912   1.000000
   26       -4.497500   1.000000
   27       -4.116897   1.000000
   28       -4.050579   1.000000
   29       -3.696143   1.000000
   30       -3.443984   1.000000
   31       -3.267613   1.000000
   32       -3.059292   1.000000
   33       -2.693223   1.000000
   34       -2.539271   1.000000
   35       -2.404959   1.000000
   36       -2.222239   1.000000
   37       -2.121542   1.000000
   38       -2.033197   1.000000
   39       -1.894972   1.000000
   40       -1.837803   1.000000
   41       -1.646313   1.000000
   42       -1.545174   1.000000
   43       -1.502726   1.000001
   44       -1.037342   1.033368
   45       -0.695144   0.216898
   46       -0.620585   0.029558
   47       -0.465519  -0.027339
   48       -0.291487  -0.001970
   49       -0.007216  -0.000001
   50        0.029463  -0.000000
   51        0.121420  -0.000000
   52        0.212888  -0.000000
   53        0.397092  -0.000000
   54        0.652921  -0.000000
   55        0.780749  -0.000000
   56        0.788345  -0.000000
   57        1.068318  -0.000000
   58        1.294253  -0.000000
   59        2.179965  -0.000000
   60        2.287726  -0.000000

 -0.4444444E+00  0.1111111E+00  0.1262379E-14  0.4938272E-01
    1      -13.416062   1.000000
    2      -12.613802   1.000000
    3      -11.903396   1.000000
    4      -11.200017   1.000000
    5      -11.064122   1.000000
    6      -10.553205   1.000000
    7       -9.806352   1.000000
    8       -9.617605   1.000000
    9       -8.809393   1.000000
   10       -8.672458   1.000000
   11       -7.941697   1.000000
   12       -7.643706   1.000000
   13       -7.112747   1.000000
   14       -6.855305   1.000000
   15       -6.729851   1.000000
   16       -6.631681   1.000000
   17       -6.447816   1.000000
   18       -5.938134   1.000000
   19       -5.880187   1.000000
   20       -5.434735   1.000000
   21       -5.373624   1.000000
   22       -5.229783   1.000000
   23       -5.005226   1.000000
   24       -4.747631   1.000000
   25       -4.620823   1.000000
   26       -4.520483   1.000000
   27       -4.216896   1.000000
   28       -4.030773   1.000000
   29       -3.793384   1.000000
   30       -3.478994   1.000000
   31       -3.192862   1.000000
   32       -3.112986   1.000000
   33       -2.732676   1.000000
   34       -2.515321   1.000000
   35       -2.327799   1.000000
   36       -2.262883   1.000000
   37       -2.025811   1.000000
   38       -1.932065   1.000000
   39       -1.854664   1.000000
   40       -1.773382   1.000000
   41       -1.562852   1.000000
   42       -1.523470   1.000001
   43       -1.435839   1.000012
   44       -1.087944   1.022828
   45       -0.728299   0.339925
   46       -0.425423  -0.018223
   47       -0.366641  -0.007959
   48       -0.169663  -0.000101
   49       -0.081437  -0.000007
   50        0.132479  -0.000000
   51        0.163487  -0.000000
   52        0.272575  -0.000000
   53        0.482224  -0.000000
   54        0.607723  -0.000000
   55        0.739711  -0.000000
   56        0.901360  -0.000000
   57        1.112262  -0.000000
   58        1.287745  -0.000000
   59        2.165639  -0.000000
   60        2.518947  -0.000000

 -0.3333333E+00  0.1111111E+00  0.1262379E-14  0.4938272E-01
    1      -13.679526   1.000000
    2      -12.200842   1.000000
    3      -11.799769   1.000000
    4      -11.415825   1.000000
    5      -11.054816   1.000000
    6      -10.240107   1.000000
    7       -9.954382   1.000000
    8       -9.632538   1.000000
    9       -8.942303   1.000000
   10       -8.687309   1.000000
   11       -8.562404   1.000000
   12       -7.765163   1.000000
   13       -7.153062   1.000000
   14       -7.001262   1.000000
   15       -6.863258   1.000000
   16       -6.521831   1.000000
   17       -6.470958   1.000000
   18       -6.086986   1.000000
   19       -5.598495   1.000000
   20       -5.159917   1.000000
   21       -5.142493   1.000000
   22       -5.080305   1.000000
   23       -4.958041   1.000000
   24       -4.776939   1.000000
   25       -4.606263   1.000000
   26       -4.403358   1.000000
   27       -4.297805   1.000000
   28       -4.116479   1.000000
   29       -4.010091   1.000000
   30       -3.478266   1.000000
   31       -3.306459   1.000000
   32       -3.037491   1.000000
   33       -2.826548   1.000000
   34       -2.625372   1.000000
   35       -2.193384   1.000000
   36       -2.080965   1.000000
   37       -1.827257   1.000000
   38       -1.792280   1.000000
   39       -1.681515   1.000000
   40       -1.600062   1.000000
   41       -1.475206   1.000003
   42       -1.364633   1.000100
   43       -1.313762   1.000382
   44       -1.064519   1.028183
   45       -0.635357   0.055733
   46       -0.301789  -0.002435
   47       -0.124267  -0.000027
   48       -0.063929  -0.000004
   49        0.082085  -0.000000
   50        0.231813  -0.000000
   51        0.326693  -0.000000
   52        0.465198  -0.000000
   53        0.548781  -0.000000
   54        0.720391  -0.000000
   55        0.793519  -0.000000
   56        0.988112  -0.000000
   57        1.143963  -0.000000
   58        1.217129  -0.000000
   59        1.840278  -0.000000
   60        2.161748  -0.000000

 -0.2222222E+00  0.1111111E+00  0.1262379E-14  0.4938272E-01
    1      -13.867192   1.000000
    2      -11.845183   1.000000
    3      -11.661278   1.000000
    4      -11.477750   1.000000
    5      -11.077706   1.000000
    6      -10.143504   1.000000
    7      -10.064068   1.000000
    8       -9.583562   1.000000
    9       -9.190547   1.000000
   10       -8.930638   1.000000
   11       -8.674688   1.000000
   12       -7.788240   1.000000
   13       -7.405997   1.000000
   14       -7.337723   1.000000
   15       -6.999983   1.000000
   16       -6.594063   1.000000
   17       -6.285884   1.000000
   18       -6.158263   1.000000
   19       -5.273402   1.000000
   20       -5.145639   1.000000
   21       -5.045669   1.000000
   22       -4.980394   1.000000
   23       -4.809336   1.000000
   24       -4.675653   1.000000
   25       -4.465390   1.000000
   26       -4.343668   1.000000
   27       -4.217871   1.000000
   28       -4.210371   1.000000
   29       -4.129573   1.000000
   30       -3.508397   1.000000
   31       -3.367762   1.000000
   32       -3.189625   1.000000
   33       -3.110229   1.000000
   34       -2.300270   1.000000
   35       -2.104468   1.000000
   36       -1.868493   1.000000
   37       -1.825004   1.000000
   38       -1.639187   1.000000
   39       -1.542024   1.000000
   40       -1.359869   1.000114
   41       -1.211113   1.003673
   42       -1.179015   1.006543
   43       -1.121051   1.015584
   44       -0.957367   1.019436
   45       -0.679562   0.166579
   46       -0.199613  -0.000226
   47        0.027546  -0.000000
   48        0.224805  -0.000000
   49        0.281474  -0.000000
   50        0.409159  -0.000000
   51        0.424421  -0.000000
   52        0.506654  -0.000000
   53        0.730441  -0.000000
   54        0.822325  -0.000000
   55        0.998358  -0.000000
   56        1.022774  -0.000000
   57        1.092514  -0.000000
   58        1.107344  -0.000000
   59        1.170722  -0.000000
   60        1.922054  -0.000000

 -0.1111111E+00  0.1111111E+00  0.1262379E-14  0.2469136E-01
    1      -13.964045   1.000000
    2      -11.705487   1.000000
    3      -11.632940   1.000000
    4      -11.265575   1.000000
    5      -11.095340   1.000000
    6      -10.222749   1.000000
    7      -10.145309   1.000000
    8       -9.743155   1.000000
    9       -9.265883   1.000000
   10       -8.827593   1.000000
   11       -8.715059   1.000000
   12       -7.725800   1.000000
   13       -7.683145   1.000000
   14       -7.549338   1.000000
   15       -7.275060   1.000000
   16       -6.513580   1.000000
   17       -6.175662   1.000000
   18       -6.136113   1.000000
   19       -5.245740   1.000000
   20       -5.123077   1.000000
   21       -5.061654   1.000000
   22       -4.920220   1.000000
   23       -4.726316   1.000000
   24       -4.562400   1.000000
   25       -4.525632   1.000000
   26       -4.255994   1.000000
   27       -4.218193   1.000000
   28       -4.042177   1.000000
   29       -4.039031   1.000000
   30       -3.593396   1.000000
   31       -3.390932   1.000000
   32       -3.305016   1.000000
   33       -3.280685   1.000000
   34       -2.071659   1.000000
   35       -1.977873   1.000000
   36       -1.875654   1.000000
   37       -1.692166   1.000000
   38       -1.588300   1.000000
   39       -1.514357   1.000001
   40       -1.303375   1.000494
   41       -1.014404   1.035433
   42       -0.969668   1.026497
   43       -0.925818   0.988629
   44       -0.843004   0.797576
   45       -0.793405   0.610999
   46       -0.023472  -0.000001
   47        0.110803  -0.000000
   48        0.373596  -0.000000
   49        0.416286  -0.000000
   50        0.453925  -0.000000
   51        0.463089  -0.000000
   52        0.616507  -0.000000
   53        0.654726  -0.000000
   54        0.801648  -0.000000
   55        0.970318  -0.000000
   56        1.006277  -0.000000
   57        1.131871  -0.000000
   58        1.166639  -0.000000
   59        1.877376  -0.000000
   60        3.483204  -0.000000

  0.2222222E+00  0.2222222E+00  0.1262379E-14  0.2469136E-01
    1      -13.459642   1.000000
    2      -12.390149   1.000000
    3      -12.179117   1.000000
    4      -11.240530   1.000000
    5      -10.843841   1.000000
    6      -10.329020   1.000000
    7      -10.135513   1.000000
    8       -9.805007   1.000000
    9       -8.540769   1.000000
   10       -8.342462   1.000000
   11       -8.206660   1.000000
   12       -7.949328   1.000000
   13       -7.209364   1.000000
   14       -6.813197   1.000000
   15       -6.592311   1.000000
   16       -6.419313   1.000000
   17       -6.318470   1.000000
   18       -6.189221   1.000000
   19       -5.963788   1.000000
   20       -5.365538   1.000000
   21       -5.286911   1.000000
   22       -5.257066   1.000000
   23       -5.165068   1.000000
   24       -4.710311   1.000000
   25       -4.624598   1.000000
   26       -4.474819   1.000000
   27       -4.267795   1.000000
   28       -3.999874   1.000000
   29       -3.786838   1.000000
   30       -3.420063   1.000000
   31       -3.247261   1.000000
   32       -3.024597   1.000000
   33       -2.769655   1.000000
   34       -2.592893   1.000000
   35       -2.331978   1.000000
   36       -2.263383   1.000000
   37       -1.965164   1.000000
   38       -1.888636   1.000000
   39       -1.769759   1.000000
   40       -1.685790   1.000000
   41       -1.631583   1.000000
   42       -1.580827   1.000000
   43       -1.304408   1.000481
   44       -1.246500   1.001805
   45       -0.599215   0.000746
   46       -0.521690  -0.035458
   47       -0.245357  -0.000706
   48       -0.212184  -0.000313
   49       -0.097999  -0.000012
   50        0.021045  -0.000000
   51        0.235751  -0.000000
   52        0.429479  -0.000000
   53        0.580103  -0.000000
   54        0.664090  -0.000000
   55        0.728595  -0.000000
   56        0.753599  -0.000000
   57        1.018207  -0.000000
   58        1.272768  -0.000000
   59        1.306109  -0.000000
   60        2.204527  -0.000000

  0.3333333E+00  0.2222222E+00  0.1262379E-14  0.4938272E-01
    1      -13.181777   1.000000
    2      -12.723494   1.000000
    3      -12.313531   1.000000
    4      -10.997810   1.000000
    5      -10.770426   1.000000
    6      -10.556726   1.000000
    7      -10.166218   1.000000
    8       -9.873930   1.000000
    9       -8.413758   1.000000
   10       -8.157644   1.000000
   11       -7.872029   1.000000
   12       -7.672364   1.000000
   13       -7.366699   1.000000
   14       -6.956788   1.000000
   15       -6.586334   1.000000
   16       -6.348758   1.000000
   17       -6.086819   1.000000
   18       -6.071617   1.000000
   19       -5.993716   1.000000
   20       -5.750167   1.000000
   21       -5.522773   1.000000
   22       -5.382226   1.000000
   23       -5.225476   1.000000
   24       -4.943695   1.000000
   25       -4.576446   1.000000
   26       -4.504025   1.000000
   27       -4.016062   1.000000
   28       -3.912107   1.000000
   29       -3.623271   1.000000
   30       -3.400322   1.000000
   31       -3.259997   1.000000
   32       -3.110651   1.000000
   33       -2.757574   1.000000
   34       -2.607037   1.000000
   35       -2.513943   1.000000