    3    3   60    1
  0.8144830E+01  0.3039000E-09  0.3039000E-09  0.3055000E-09  0.5000000E-15
   1.0000000000000000E-004
  CAR 
 Name                                    
     12    216     10

  0.3742002E-15  0.3742002E-15  0.3742002E-15  0.2962963E-03
    1       -5.664757   1.000000
    2        4.182800   1.000000
    3        4.182802   1.000000
    4        5.981041   1.000000
    5        6.217602   1.000000
    6        7.866169   1.000000
    7        7.866170   1.000000
    8       11.839495  -0.000000
    9       11.839497  -0.000000
   10       12.976045   0.000000

  0.6666667E-01  0.3766815E-15  0.3742002E-15  0.1777778E-02
    1       -5.579415   1.000000
    2        3.966516   1.000000
    3        4.211467   1.000000
    4        5.618251   1.000000
    5        6.255117   1.000000
    6        7.835174   1.000000
    7        8.315923   1.000000
    8       11.238209  -0.000000
    9       11.319568  -0.000000
   10       13.488069   0.000000

  0.1333333E+00  0.3754153E-15  0.3742002E-15  0.1777778E-02
    1       -5.326730   1.000000
    2        3.393066   1.000000
    3        4.285431   1.000000
    4        4.971180   1.000000
    5        6.323348   1.000000
    6        7.748907   1.000000
    7        9.202899   1.000509
    8       10.418464  -0.000000
    9       10.670915  -0.000000
   10       14.087568   0.000000

  0.2000000E+00  0.3870416E-15  0.3742002E-15  0.1777778E-02
    1       -4.916394   1.000000
    2        2.606677   1.000000
    3        4.351631   1.000000
    4        4.373018   1.000000
    5        6.280774   1.000000
    6        7.625088   1.000000
    7        9.932345  -0.000000
    8       10.137136  -0.000000
    9       10.227402  -0.000000
   10       14.549709   0.000000

  0.2666667E+00  0.4120044E-15  0.3742002E-15  0.1777778E-02
    1       -4.363496   1.000000
    2        1.716226   1.000000
    3        3.832839   1.000000
    4        4.438922   1.000000
    5        5.999939   1.000000
    6        7.487448   1.000000
    7       10.003646  -0.000000
    8       10.021754  -0.000000
    9       10.870830  -0.000000
   10       14.830170   0.000000

  0.3333333E+00  0.4025434E-15  0.3742002E-15  0.1777778E-02
    1       -3.687495   1.000000
    2        0.780584   1.000000
    3        3.436400   1.000000
    4        4.465473   1.000000
    5        5.578966   1.000000
    6        7.360028   1.000000
    7       10.017533  -0.000000
    8       10.560618  -0.000000
    9       11.184699  -0.000000
   10       14.999715   0.000000

  0.4000000E+00  0.3732510E-15  0.3742002E-15  0.1777778E-02
    1       -2.911818   1.000000
    2       -0.167505   1.000000
    3        3.170041   1.000000
    4        4.462101   1.000000
    5        5.208091   1.000000
    6        7.263131   1.000000
    7       10.121384  -0.000000
    8       11.169106  -0.000000
    9       11.356201  -0.000000
   10       15.120035   0.000000

  0.4666667E+00  0.3915456E-15  0.3742002E-15  0.1777778E-02
    1       -2.075462   1.000000
    2       -1.089518   1.000000
    3        3.036500   1.000000
    4        4.451927   1.000000
    5        5.000649   1.000000
    6        7.211028   1.000000
    7       10.215411  -0.000000
    8       11.092230  -0.000000
    9       12.026448  -0.000000
   10       15.253925   0.000000

  0.6666667E-01  0.6666667E-01  0.3742002E-15  0.1777778E-02
    1       -5.410375   1.000000
    2        3.586636   1.000000
    3        4.244049   1.000000
    4        5.150242   1.000000
    5        6.313952   1.000000
    6        7.761242   1.000000
    7        8.964400   1.000000
    8       10.655865  -0.000000
    9       10.784988  -0.000000
   10       14.024361   0.000000

  0.1333333E+00  0.6666667E-01  0.3742002E-15  0.3555556E-02
    1       -5.078687   1.000000
    2        2.942111   1.000000
    3        4.261929   1.000000
    4        4.573068   1.000000
    5        6.370350   1.000000
    6        7.615094   1.000000
    7        9.874644  -0.000000
    8        9.980957  -0.000000
    9       10.401175  -0.000000
   10       14.602462   0.000000

  0.2000000E+00  0.6666667E-01  0.3742002E-15  0.3555556E-02
    1       -4.596518   1.000000
    2        2.141740   1.000000
    3        4.048042   1.000000
    4        4.222748   1.000000
    5        6.314904   1.000000
    6        7.427173   1.000000
    7        9.575701  -0.029729
    8       10.340614  -0.000000
    9       10.768635  -0.000000
   10       14.802316   0.000000

  0.2666667E+00  0.6666667E-01  0.3742002E-15  0.3555556E-02
    1       -3.980933   1.000000
    2        1.258992   1.000000
    3        3.624514   1.000000
    4        4.104614   1.000000
    5        6.114021   1.000000
    6        7.230809   1.000000
    7        9.540057   0.041624
    8       10.625890  -0.000000
    9       11.374483  -0.000000
   10       14.710681   0.000000

  0.3333333E+00  0.6666667E-01  0.3742002E-15  0.3555556E-02
    1       -3.252922   1.000000
    2        0.335758   1.000000
    3        3.318473   1.000000
    4        3.940058   1.000000
    5        5.873897   1.000000
    6        7.059603   1.000000
    7        9.742749  -0.000405
    8       11.170931  -0.000000
    9       11.547168  -0.000000
   10       15.249849   0.000000

  0.4000000E+00  0.6666667E-01  0.3742002E-15  0.3555556E-02
    1       -2.438879   1.000000
    2       -0.596362   1.000000
    3        3.134519   1.000000
    4        3.799846   1.000000
    5        5.701334   1.000000
    6        6.943093   1.000000
    7        9.979147  -0.000000
    8       11.503555  -0.000000
    9       11.765772  -0.000000
   10       15.391346   0.000000

  0.4666667E+00  0.6666667E-01  0.3742002E-15  0.1777778E-02
    1       -1.699931   1.000000
    2       -1.374819   1.000000
    3        3.073246   1.000000
    4        3.745523   1.000000
    5        5.640570   1.000000
    6        6.901792   1.000000
    7       10.080606  -0.000000
    8       11.467329  -0.000000
    9       12.048966  -0.000000
   10       15.547871   0.000000

  0.1333333E+00  0.1333333E+00  0.3742002E-15  0.1777778E-02
    1       -4.674752   1.000000
    2        2.344718   1.000000
    3        4.047900   1.000000
    4        4.144824   1.000000
    5        6.490298   1.000000
    6        7.344698   1.000000
    7        9.417878   0.884072
    8       10.451310  -0.000000
    9       10.789157  -0.000000
   10       14.808750   0.000000

  0.2000000E+00  0.1333333E+00  0.3742002E-15  0.3555556E-02
    1       -4.128565   1.000000
    2        1.637964   1.000000
    3        3.681223   1.000000
    4        3.777810   1.000000
    5        6.634706   1.000000
    6        7.006724   1.000000
    7        9.034233   1.000000
    8       10.788792  -0.000000
    9       11.700893  -0.000000
   10       14.482256   0.000000

  0.2666667E+00  0.1333333E+00  0.3742002E-15  0.3555556E-02
    1       -3.458294   1.000000
    2        0.838453   1.000000
    3        3.291600   1.000000
    4        3.503767   1.000000
    5        6.664923   1.000000
    6        6.672180   1.000000
    7        9.033974   1.000000
    8       11.246732  -0.000000
    9       12.275627   0.000000
   10       14.622612   0.000000

  0.3333333E+00  0.1333333E+00  0.3742002E-15  0.3555556E-02
    1       -2.686397   1.000000
    2       -0.030315   1.000000
    3        2.988256   1.000000
    4        3.327553   1.000000
    5        6.405356   1.000000
    6        6.575722   1.000000
    7        9.349498   1.035423
    8       11.622392  -0.000000
    9       12.400079   0.000000
   10       15.219049   0.000000

  0.4000000E+00  0.1333333E+00  0.3742002E-15  0.3555556E-02
    1       -1.843943   1.000000
    2       -0.926325   1.000000
    3        2.826816   1.000000
    4        3.242836   1.000000
    5        6.257386   1.000000
    6        6.493431   1.000000
    7        9.666533  -0.009064
    8       11.781052  -0.000000
    9       12.376196   0.000000
   10       15.733454   0.000000

  0.2000000E+00  0.2000000E+00  0.3742002E-15  0.1777778E-02
    1       -3.526823   1.000000
    2        1.097050   1.000000
    3        2.978984   1.000000
    4        3.594145   1.000000
    5        6.490310   1.000000
    6        7.094772   1.000000
    7        8.611395   1.000000
    8       11.293018  -0.000000
    9       12.725345   0.000000
   10       14.278253   0.000000

  0.2666667E+00  0.2000000E+00  0.3742002E-15  0.3555556E-02
    1       -2.810681   1.000000
    2        0.464235   1.000000
    3        2.362389   1.000000
    4        3.506468   1.000000
    5        6.000290   1.000000
    6        7.378743   1.000000
    7        8.595497   1.000000
    8       11.590500  -0.000000
    9       13.378991   0.000000
   10       14.529727   0.000000

  0.3333333E+00  0.2000000E+00  0.3742002E-15  0.3555556E-02
    1       -2.006338   1.000000
    2       -0.301105   1.000000
    3        1.979909   1.000000
    4        3.489571   1.000000
    5        5.642109   1.000000
    6        7.351093   1.000000
    7        9.016643   1.000000
    8       11.538861  -0.000000
    9       13.450763   0.000000
   10       15.240385   0.000000

  0.4000000E+00  0.2000000E+00  0.3742002E-15  0.1777778E-02
    1       -1.160101   1.000000
    2       -1.141573   1.000000
    3        1.856259   1.000000
    4        3.493854   1.000000
    5        5.508287   1.000000
    6        7.307669   1.000000
    7        9.284799   1.012344
    8       11.410913  -0.000000
    9       13.436067   0.000000
   10       15.585891   0.000000

  0.2666667E+00  0.2666667E+00  0.3742002E-15  0.1777778E-02
    1       -2.062342   1.000000
    2        0.078859   1.000000
    3        1.525740   1.000000
    4        3.632609   1.000000
    5        5.365650   1.000000
    6        8.097874   1.000000
    7        8.322945   1.000000
    8       11.454504  -0.000000
    9       14.450072   0.000000
   10       14.464557   0.000000

  0.3333333E+00  0.2666667E+00  0.3742002E-15  0.3555556E-02
    1       -1.260493   1.000000
    2       -0.477222   1.000000
    3        1.034569   1.000000
    4        3.812894   1.000000
    5        4.914892   1.000000
    6        8.089298   1.000000
    7        8.782863   1.000000
    8       11.073392  -0.000000
    9       14.411615   0.000000
   10       15.198087   0.000000

  0.3333333E+00  0.3333333E+00  0.3742002E-15  0.5925926E-03
    1       -0.663550   1.000000
    2       -0.663547   1.000000
    3        0.496551   1.000000
    4        4.293530   1.000000
    5        4.293532   1.000000
    6        8.575494   1.000000
    7        8.575494   1.000000
    8       10.772931  -0.000000
    9       14.998325   0.000000
   10       14.998325   0.000000

  0.3742002E-15  0.3742002E-15  0.6666667E-01  0.5925926E-03
    1       -5.600393   1.000000
    2        4.236559   1.000000
    3        4.236562   1.000000
    4        5.162868   1.000000
    5        6.991195   1.000000
    6        7.672752   1.000000
    7        7.672753   1.000000
    8       11.684896  -0.000000
    9       11.684898  -0.000000
   10       13.220940   0.000000

  0.6666667E-01  0.3766815E-15  0.6666667E-01  0.3555556E-02
    1       -5.516172   1.000000
    2        4.011727   1.000000
    3        4.257153   1.000000
    4        5.032784   1.000000
    5        6.670453   1.000000
    6        7.643342   1.000000
    7        8.246407   1.000000
    8       11.234116  -0.000000
    9       11.319744  -0.000000
   10       13.514019   0.000000

  0.1333333E+00  0.3754153E-15  0.6666667E-01  0.3555556E-02
    1       -5.266955   1.000000
    2        3.412709   1.000000
    3        4.304587   1.000000
    4        4.671075   1.000000
    5        6.431510   1.000000
    6        7.574861   1.000000
    7        9.131037   1.000009
    8       10.556621  -0.000000
    9       10.782481  -0.000000
   10       14.093530   0.000000

  0.2000000E+00  0.3870416E-15  0.6666667E-01  0.3555556E-02
    1       -4.862570   1.000000
    2        2.595752   1.000000
    3        4.219595   1.000000
    4        4.343908   1.000000
    5        6.261812   1.000000
    6        7.512858   1.000000
    7        9.761330  -0.000154
    8       10.381692  -0.000000
    9       10.401939  -0.000000
   10       14.335178   0.000000

  0.2666667E+00  0.4120044E-15  0.6666667E-01  0.3555556E-02
    1       -4.318313   1.000000
    2        1.683475   1.000000
    3        3.801929   1.000000
    4        4.343463   1.000000
    5        5.956150   1.000000
    6        7.490770   1.000000
    7        9.990719  -0.000000
    8       10.160766  -0.000000
    9       10.917972  -0.000000
   10       14.398039   0.000000

  0.3333333E+00  0.4025434E-15  0.6666667E-01  0.3555556E-02
    1       -3.653445   1.000000
    2        0.738756   1.000000
    3        3.471046   1.000000
    4        4.301468   1.000000
    5        5.548926   1.000000
    6        7.501049   1.000000
    7       10.108105  -0.000000
    8       10.476659  -0.000000
    9       11.213632  -0.000000
   10       14.748008   0.000000

  0.4000000E+00  0.3732510E-15  0.6666667E-01  0.3555556E-02
    1       -2.889929   1.000000
    2       -0.208149   1.000000
    3        3.246498   1.000000
    4        4.245305   1.000000
    5        5.191789   1.000000
    6        7.515715   1.000000
    7       10.165082  -0.000000
    8       10.815000  -0.000000
    9       11.618778  -0.000000
   10       15.024591   0.000000

  0.4666667E+00  0.3915456E-15  0.6666667E-01  0.3555556E-02
    1       -2.055743   1.000000
    2       -1.132408   1.000000
    3        3.133951   1.000000
    4        4.207548   1.000000
    5        4.990421   1.000000
    6        7.522144   1.000000
    7       10.233596  -0.000000
    8       10.804189  -0.000000
    9       12.252879   0.000000
   10       14.832519   0.000000

  0.6666667E-01  0.6666667E-01  0.6666667E-01  0.3555556E-02
    1       -5.349431   1.000000
    2        3.622657   1.000000
    3        4.247977   1.000000
    4        4.801854   1.000000
    5        6.496780   1.000000
    6        7.557863   1.000000
    7        8.920581   1.000000
    8       10.729380  -0.000000
    9       10.894836  -0.000000
   10       14.038222   0.000000

  0.1333333E+00  0.6666667E-01  0.6666667E-01  0.7111111E-02
    1       -5.022463   1.000000
    2        2.956872   1.000000
    3        4.106200   1.000000
    4        4.526109   1.000000
    5        6.416290   1.000000
    6        7.412926   1.000000
    7        9.743704  -0.000386
    8       10.189693  -0.000000
    9       10.585041  -0.000000
   10       14.534350   0.000000

  0.2000000E+00  0.6666667E-01  0.6666667E-01  0.7111111E-02
    1       -4.547676   1.000000
    2        2.128400   1.000000
    3        3.813829   1.000000
    4        4.330584   1.000000
    5        6.281109   1.000000
    6        7.316027   1.000000
    7        9.738352  -0.000502
    8       10.358073  -0.000000
    9       10.842242  -0.000000
   10       14.455586   0.000000

  0.2666667E+00  0.6666667E-01  0.6666667E-01  0.7111111E-02
    1       -3.942189   1.000000
    2        1.226069   1.000000
    3        3.526588   1.000000
    4        4.119673   1.000000
    5        5.998253   1.000000
    6        7.313181   1.000000
    7        9.692435  -0.003694
    8       10.624455  -0.000000
    9       11.347297  -0.000000
   10       14.507307   0.000000

  0.3333333E+00  0.6666667E-01  0.6666667E-01  0.7111111E-02
    1       -3.226483   1.000000
    2        0.296515   1.000000
    3        3.318508   1.000000
    4        3.890680   1.000000
    5        5.686178   1.000000
    6        7.332840   1.000000
    7        9.831434  -0.000002
    8       11.020445  -0.000000
    9       11.600790  -0.000000
   10       14.905798   0.000000

  0.4000000E+00  0.6666667E-01  0.6666667E-01  0.7111111E-02
    1       -2.423877   1.000000
    2       -0.633206   1.000000
    3        3.203020   1.000000
    4        3.706854   1.000000
    5        5.465819   1.000000
    6        7.334222   1.000000
    7       10.018139  -0.000000
    8       11.144133  -0.000000
    9       12.038222  -0.000000
   10       15.012586   0.000000

  0.4666667E+00  0.6666667E-01  0.6666667E-01  0.3555556E-02
    1       -1.637604   1.000000
    2       -1.461510   1.000000
    3        3.168358   1.000000
    4        3.635263   1.000000
    5        5.388434   1.000000
    6        7.330809   1.000000
    7       10.103272  -0.000000
    8       11.131001  -0.000000
    9       12.329793   0.000000
   10       14.927428   0.000000

  0.1333333E+00  0.1333333E+00  0.6666667E-01  0.3555556E-02
    1       -4.624719   1.000000
    2        2.356709   1.000000
    3        3.672030   1.000000
    4        4.376498   1.000000
    5        6.545294   1.000000
    6        7.083371   1.000000
    7        9.664588  -0.009627
    8       10.430428  -0.000000
    9       10.866357  -0.000000
   10       14.623467   0.000000

  0.2000000E+00  0.1333333E+00  0.6666667E-01  0.7111111E-02
    1       -4.087582   1.000000
    2        1.631739   1.000000
    3        3.290070   1.000000
    4        4.085358   1.000000
    5        6.517085   1.000000
    6        6.948297   1.000000
    7        9.312068   1.023799
    8       10.818102  -0.000000
    9       11.637925  -0.000000
   10       14.335785   0.000000

  0.2666667E+00  0.1333333E+00  0.6666667E-01  0.7111111E-02
    1       -3.429247   1.000000
    2        0.812382   1.000000
    3        3.015676   1.000000
    4        3.751164   1.000000
    5        6.149253   1.000000
    6        7.134949   1.000000
    7        9.237863   1.002429
    8       11.243882  -0.000000
    9       12.159158  -0.000000
   10       14.473744   0.000000

  0.3333333E+00  0.1333333E+00  0.6666667E-01  0.7111111E-02
    1       -2.671442   1.000000
    2       -0.063164   1.000000
    3        2.844343   1.000000
    4        3.479462   1.000000
    5        5.836441   1.000000
    6        7.216097   1.000000
    7        9.452667   0.648156
    8       11.543157  -0.000000
    9       12.357651   0.000000
   10       14.919122   0.000000

  0.4000000E+00  0.1333333E+00  0.6666667E-01  0.7111111E-02
    1       -1.839441   1.000000
    2       -0.957338   1.000000
    3        2.762855   1.000000
    4        3.331540   1.000000
    5        5.665038   1.000000
    6        7.215327   1.000000
    7        9.716142  -0.001403
    8       11.608163  -0.000000
    9       12.471086   0.000000
   10       15.169135   0.000000

  0.2000000E+00  0.2000000E+00  0.6666667E-01  0.3555556E-02
    1       -3.496929   1.000000
    2        1.088835   1.000000
    3        2.725582   1.000000
    4        3.807353   1.000000
    5        6.232850   1.000000
    6        7.183832   1.000000
    7        8.929529   1.000000
    8       11.310899  -0.000000
    9       12.572646   0.000000
   10       14.159482   0.000000

  0.2666667E+00  0.2000000E+00  0.6666667E-01  0.7111111E-02
    1       -2.795334   1.000000
    2        0.441844   1.000000
    3        2.238622   1.000000
    4        3.633003   1.000000
    5        5.762363   1.000000
    6        7.567635   1.000000
    7        8.826808   1.000000
    8       11.596170  -0.000000
    9       13.203357   0.000000
   10       14.374869   0.000000

  0.3333333E+00  0.2000000E+00  0.6666667E-01  0.7111111E-02
    1       -2.008662   1.000000
    2       -0.328686   1.000000
    3        1.936404   1.000000
    4        3.562682   1.000000
    5        5.416602   1.000000
    6        7.663872   1.000000
    7        9.125274   1.000006
    8       11.542905  -0.000000
    9       13.341023   0.000000
   10       14.974515   0.000000

  0.4000000E+00  0.2000000E+00  0.6666667E-01  0.3555556E-02
    1       -1.215325   1.000000
    2       -1.123024   1.000000
    3        1.837830   1.000000
    4        3.548891   1.000000
    5        5.288269   1.000000
    6        7.652190   1.000000
    7        9.356374   1.034253
    8       11.421257  -0.000000
    9       13.351334   0.000000
   10       15.269363   0.000000

  0.2666667E+00  0.2666667E+00  0.6666667E-01  0.3555556E-02
    1       -2.065589   1.000000
    2        0.049366   1.000000
    3        1.489172   1.000000
    4        3.696588   1.000000
    5        5.220499   1.000000
    6        8.204342   1.000000
    7        8.570522   1.000000
    8       11.479002  -0.000000
    9       14.239199   0.000000
   10       14.341698   0.000000

  0.3333333E+00  0.2666667E+00  0.6666667E-01  0.7111111E-02
    1       -1.290177   1.000000
    2       -0.507152   1.000000
    3        1.050522   1.000000
    4        3.838733   1.000000
    5        4.816873   1.000000
    6        8.296800   1.000000
    7        8.898758   1.000000
    8       11.118080  -0.000000
    9       14.292478   0.000000
   10       15.010131   0.000000

  0.3333333E+00  0.3333333E+00  0.6666667E-01  0.1185185E-02
    1       -0.716151   1.000000
    2       -0.716148   1.000000
    3        0.566406   1.000000
    4        4.267386   1.000000
    5        4.267388   1.000000
    6        8.724161   1.000000
    7        8.724161   1.000000
    8       10.830510  -0.000000
    9       14.865309   0.000000
   10       14.865309   0.000000

  0.3742002E-15  0.3742002E-15  0.1333333E+00  0.5925926E-03
    1       -5.410631   1.000000
    2        4.200575   1.000000
    3        4.397408   1.000000
    4        4.397411   1.000000
    5        7.207882   1.000000
    6        7.207884   1.000000
    7        7.838226   1.000000
    8       11.252141  -0.000000
    9       11.252144  -0.000000
   10       13.225139   0.000000

  0.6666667E-01  0.3766815E-15  0.1333333E+00  0.3555556E-02
    1       -5.329937   1.000000
    2        4.079250   1.000000
    3        4.214446   1.000000
    4        4.389840   1.000000
    5        6.856159   1.000000
    6        7.195792   1.000000
    7        8.375267   1.000000
    8       11.030101  -0.000000
    9       11.143612  -0.000000
   10       13.521828   0.000000

  0.1333333E+00  0.3754153E-15  0.1333333E+00  0.3555556E-02
    1       -5.091454   1.000000
    2        3.420665   1.000000
    3        4.081772   1.000000
    4        4.349587   1.000000
    5        6.485216   1.000000
    6        7.202915   1.000000
    7        9.148916   1.000027
    8       10.674965  -0.000000
    9       10.914197  -0.000000
   10       14.237258   0.000000

  0.2000000E+00  0.3870416E-15  0.1333333E+00  0.3555556E-02
    1       -4.705727   1.000000
    2        2.539493   1.000000
    3        3.910947   1.000000
    4        4.247290   1.000000
    5        6.171516   1.000000
    6        7.308512   1.000000
    7        9.649849  -0.014676
    8       10.679658  -0.000000
    9       10.730766  -0.000000
   10       14.063078   0.000000

  0.2666667E+00  0.4120044E-15  0.1333333E+00  0.3555556E-02
    1       -4.188656   1.000000
    2        1.592632   1.000000
    3        3.721471   1.000000
    4        4.086645   1.000000
    5        5.818864   1.000000
    6        7.536805   1.000000
    7        9.921594  -0.000000
    8       10.487767  -0.000000
    9       11.117348  -0.000000
   10       14.011748   0.000000

  0.3333333E+00  0.4025434E-15  0.1333333E+00  0.3555556E-02
    1       -3.559600   1.000000
    2        0.641804   1.000000
    3        3.557603   1.000000
    4        3.909734   1.000000
    5        5.437697   1.000000
    6        7.830331   1.000000
    7       10.258946  -0.000000
    8       10.359440  -0.000000
    9       11.383255  -0.000000
   10       14.332868   0.000000

  0.4000000E+00  0.3732510E-15  0.1333333E+00  0.3555556E-02
    1       -2.839323   1.000000
    2       -0.286893   1.000000
    3        3.445774   1.000000
    4        3.764466   1.000000
    5        5.115666   1.000000
    6        8.092257   1.000000
    7       10.299906  -0.000000
    8       10.396789  -0.000000
    9       11.879294  -0.000000
   10       14.550243   0.000000

  0.4666667E+00  0.3915456E-15  0.1333333E+00  0.3555556E-02
    1       -2.052347   1.000000
    2       -1.175260   1.000000
    3        3.391761   1.000000
    4        3.683970   1.000000
    5        4.932923   1.000000
    6        8.241280   1.000000
    7       10.287558  -0.000000
    8       10.356773  -0.000000
    9       12.581045   0.000000
   10       14.223846   0.000000

  0.6666667E-01  0.6666667E-01  0.1333333E+00  0.3555556E-02
    1       -5.170332   1.000000
    2        3.724967   1.000000
    3        3.935694   1.000000
    4        4.450002   1.000000
    5        6.643894   1.000000
    6        7.103169   1.000000
    7        8.989114   1.000000
    8       10.718160  -0.000000
    9       10.994507  -0.000000
   10       14.051721   0.000000

  0.1333333E+00  0.6666667E-01  0.1333333E+00  0.7111111E-02
    1       -4.858126   1.000000
    2        2.976899   1.000000
    3        3.681516   1.000000
    4        4.455539   1.000000
    5        6.453419   1.000000
    6        7.027951   1.000000
    7        9.690496  -0.003974
    8       10.425923  -0.000000
    9       10.875664  -0.000000
   10       14.417531   0.000000

  0.2000000E+00  0.6666667E-01  0.1333333E+00  0.7111111E-02
    1       -4.406411   1.000000
    2        2.077607   1.000000
    3        3.467645   1.000000
    4        4.327209   1.000000
    5        6.129201   1.000000
    6        7.201465   1.000000
    7        9.927810  -0.000000
    8       10.499078  -0.000000
    9       11.056678  -0.000000
   10       14.116742   0.000000

  0.2666667E+00  0.6666667E-01  0.1333333E+00  0.7111111E-02
    1       -3.832859   1.000000
    2        1.141352   1.000000
    3        3.311314   1.000000
    4        4.093056   1.000000
    5        5.734480   1.000000
    6        7.527250   1.000000
    7        9.996903  -0.000000
    8       10.619533  -0.000000
    9       11.411959  -0.000000
   10       14.145449   0.000000

  0.3333333E+00  0.6666667E-01  0.1333333E+00  0.7111111E-02
    1       -3.157700   1.000000
    2        0.211110   1.000000
    3        3.235287   1.000000
    4        3.821040   1.000000
    5        5.374861   1.000000
    6        7.860684   1.000000
    7       10.065451  -0.000000
    8       10.741740  -0.000000
    9       11.740373  -0.000000
   10       14.460914   0.000000

  0.4000000E+00  0.6666667E-01  0.1333333E+00  0.7111111E-02
    1       -2.402897   1.000000
    2       -0.692479   1.000000
    3        3.249772   1.000000
    4        3.571785   1.000000
    5        5.129623   1.000000
    6        8.090418   1.000000
    7       10.132759  -0.000000
    8       10.705734  -0.000000
    9       12.307878   0.000000
   10       14.450001   0.000000

  0.4666667E+00  0.6666667E-01  0.1333333E+00  0.3555556E-02
    1       -1.689092   1.000000
    2       -1.454932   1.000000
    3        3.319000   1.000000
    4        3.420230   1.000000
    5        5.043432   1.000000
    6        8.168302   1.000000
    7       10.168686  -0.000000
    8       10.663210  -0.000000
    9       12.694001   0.000000
   10       14.233980   0.000000

  0.1333333E+00  0.1333333E+00  0.1333333E+00  0.3555556E-02
    1       -4.479688   1.000000
    2        2.387161   1.000000
    3        3.179694   1.000000
    4        4.452763   1.000000
    5        6.571617   1.000000
    6        6.709400   1.000000
    7       10.067383  -0.000000
    8       10.395380  -0.000000
    9       11.075543  -0.000000
   10       14.375476   0.000000

  0.2000000E+00  0.1333333E+00  0.1333333E+00  0.7111111E-02
    1       -3.970871   1.000000
    2        1.608654   1.000000
    3        2.857039   1.000000
    4        4.264962   1.000000
    5        6.093819   1.000000
    6        7.103417   1.000000
    7        9.832490  -0.000002
    8       10.867207  -0.000000
    9       11.575186  -0.000000
   10       14.074106   0.000000

  0.2666667E+00  0.1333333E+00  0.1333333E+00  0.7111111E-02
    1       -3.350371   1.000000
    2        0.746373   1.000000
    3        2.683158   1.000000
    4        3.983143   1.000000
    5        5.643982   1.000000
    6        7.568716   1.000000
    7        9.717956  -0.001295
    8       11.205051  -0.000000
    9       11.998024  -0.000000
   10       14.151169   0.000000

  0.3333333E+00  0.1333333E+00  0.1333333E+00  0.7111111E-02
    1       -2.639996   1.000000
    2       -0.130968   1.000000
    3        2.610258   1.000000
    4        3.713974   1.000000
    5        5.306144   1.000000
    6        7.943310   1.000000
    7        9.747888  -0.000312
    8       11.324424  -0.000000
    9       12.337167   0.000000
   10       14.430810   0.000000

  0.4000000E+00  0.1333333E+00  0.1333333E+00  0.7111111E-02
    1       -1.872505   1.000000
    2       -0.981848   1.000000
    3        2.595582   1.000000
    4        3.547109   1.000000
    5        5.125999   1.000000
    6        8.124414   1.000000
    7        9.861454  -0.000000
    8       11.277485  -0.000000
    9       12.640512   0.000000
   10       14.498435   0.000000

  0.2000000E+00  0.2000000E+00  0.1333333E+00  0.3555556E-02
    1       -3.414780   1.000000
    2        1.061712   1.000000
    3        2.339895   1.000000
    4        4.065435   1.000000
    5        5.741889   1.000000
    6        7.447414   1.000000
    7        9.566539  -0.020535
    8       11.351568  -0.000000
    9       12.288619   0.000000
   10       13.913529   0.000000

  0.2666667E+00  0.2000000E+00  0.1333333E+00  0.7111111E-02
    1       -2.758785   1.000000
    2        0.381040   1.000000
    3        2.009753   1.000000
    4        3.863830   1.000000
    5        5.321239   1.000000
    6        7.953650   1.000000
    7        9.396472   0.973103
    8       11.607496  -0.000000
    9       12.857322   0.000000
   10       14.054472   0.000000
