   24   24    1    1
  0.8602741E+01  0.6071501E-09  0.6071501E-09  0.6465832E-09  0.5000000E-15
   1.0000000000000000E-004
  CAR 
 Name                                    
     94    125     60

  0.3742002E-15  0.3742002E-15  0.3742002E-15  0.1371742E-02
    1       -5.734708   1.000000
    2       -3.650861   1.000000
    3       -2.522780   1.000000
    4       -2.399947   1.000000
    5       -2.279684   1.000000
    6       -1.813237   1.000000
    7       -1.807379   1.000000
    8       -1.804186   1.000000
    9       -1.323229   1.000000
   10       -1.296418   1.000000
   11       -1.269694   1.000000
   12       -0.033668   1.000000
   13        0.340779   1.000000
   14        0.425298   1.000000
   15        0.493541   1.000000
   16        2.489700   1.000000
   17        2.521683   1.000000
   18        2.648758   1.000000
   19        2.806198   1.000000
   20        3.005581   1.000000
   21        3.129417   1.000000
   22        3.477777   1.000000
   23        3.794422   1.000000
   24        3.871004   1.000000
   25        4.012631   1.000000
   26        4.249504   1.000000
   27        4.395135   1.000000
   28        4.540014   1.000000
   29        4.580758   1.000000
   30        4.602917   1.000000
   31        4.611475   1.000000
   32        4.647684   1.000000
   33        4.853276   1.000000
   34        4.950840   1.000000
   35        5.010299   1.000000
   36        5.017724   1.000000
   37        5.672223   1.000000
   38        6.733698   1.000000
   39        6.808918   1.000000
   40        7.244480   1.000000
   41        7.255273   1.000000
   42        7.270583   1.000000
   43        7.293616   1.000000
   44        8.378588   1.000000
   45        8.396539   1.000000
   46        8.507206   1.000000
   47        8.855847   1.017895
   48        9.116810  -0.010443
   49        9.127185  -0.024951
   50        9.817540  -0.000000
   51        9.897286  -0.000000
   52        9.981311  -0.000000
   53       10.117692  -0.000000
   54       10.136235  -0.000000
   55       11.048240  -0.000000
   56       11.224587  -0.000000
   57       11.370751  -0.000000
   58       13.067313   0.000000
   59       13.256262   0.000000
   60       13.441801   0.000000

  0.1111111E+00  0.3637223E-15  0.3742002E-15  0.5486968E-02
    1       -5.674488   1.000000
    2       -3.630126   1.000000
    3       -2.552169   1.000000
    4       -2.387498   1.000000
    5       -2.367574   1.000000
    6       -2.319348   1.000000
    7       -1.976850   1.000000
    8       -1.972736   1.000000
    9       -1.051703   1.000000
   10       -1.048002   1.000000
   11       -0.702733   1.000000
   12        0.052358   1.000000
   13        0.390903   1.000000
   14        0.403867   1.000000
   15        0.587656   1.000000
   16        2.508544   1.000000
   17        2.525626   1.000000
   18        2.683831   1.000000
   19        2.810173   1.000000
   20        3.052847   1.000000
   21        3.120974   1.000000
   22        3.524625   1.000000
   23        3.655591   1.000000
   24        3.742298   1.000000
   25        3.834003   1.000000
   26        3.889253   1.000000
   27        4.366044   1.000000
   28        4.378416   1.000000
   29        4.541236   1.000000
   30        4.565106   1.000000
   31        4.642748   1.000000
   32        4.912875   1.000000
   33        4.923673   1.000000
   34        4.973506   1.000000
   35        5.211495   1.000000
   36        5.322501   1.000000
   37        5.555551   1.000000
   38        6.084888   1.000000
   39        6.150913   1.000000
   40        7.104261   1.000000
   41        7.326007   1.000000
   42        7.863809   1.000000
   43        7.961488   1.000000
   44        8.121069   1.000000
   45        8.172857   1.000000
   46        8.482361   1.000000
   47        8.883585   1.030316
   48        9.096639   0.042646
   49        9.292154  -0.000583
   50        9.799701  -0.000000
   51        9.905729  -0.000000
   52        9.965670  -0.000000
   53       10.038257  -0.000000
   54       10.106066  -0.000000
   55       11.147975  -0.000000
   56       11.183178  -0.000000
   57       11.197746  -0.000000
   58       11.567048  -0.000000
   59       11.606699  -0.000000
   60       13.467295   0.000000

  0.2222222E+00  0.3527865E-15  0.3742002E-15  0.5486968E-02
    1       -5.495500   1.000000
    2       -3.567501   1.000000
    3       -3.071288   1.000000
    4       -2.690765   1.000000
    5       -2.355546   1.000000
    6       -2.344852   1.000000
    7       -2.202562   1.000000
    8       -2.199952   1.000000
    9       -0.592841   1.000000
   10       -0.587320   1.000000
   11        0.098733   1.000000
   12        0.310962   1.000000
   13        0.350138   1.000000
   14        0.363176   1.000000
   15        1.005007   1.000000
   16        2.528329   1.000000
   17        2.531401   1.000000
   18        2.689174   1.000000
   19        2.824003   1.000000
   20        3.004779   1.000000
   21        3.037351   1.000000
   22        3.176583   1.000000
   23        3.187258   1.000000
   24        3.657032   1.000000
   25        3.916783   1.000000
   26        3.940014   1.000000
   27        3.950774   1.000000
   28        4.503042   1.000000
   29        4.513275   1.000000
   30        4.640918   1.000000
   31        4.669778   1.000000
   32        4.775520   1.000000
   33        4.859040   1.000000
   34        4.911367   1.000000
   35        5.186403   1.000000
   36        5.266742   1.000000
   37        5.389480   1.000000
   38        5.866998   1.000000
   39        5.963548   1.000000
   40        6.740088   1.000000
   41        7.538831   1.000000
   42        7.555201   1.000000
   43        7.568042   1.000000
   44        8.500508   1.000000
   45        8.632609   1.000000
   46        8.898642   1.034908
   47        8.964807   0.931117
   48        9.032892   0.453218
   49        9.624754  -0.000000
   50        9.627351  -0.000000
   51        9.729958  -0.000000
   52        9.735077  -0.000000
   53        9.871772  -0.000000
   54        9.887317  -0.000000
   55        9.986134  -0.000000
   56       10.243695  -0.000000
   57       10.553119  -0.000000
   58       10.750210  -0.000000
   59       11.338949  -0.000000
   60       11.566744  -0.000000

  0.3333333E+00  0.3545038E-15  0.3742002E-15  0.5486968E-02
    1       -5.202548   1.000000
    2       -3.725043   1.000000
    3       -3.462105   1.000000
    4       -2.907148   1.000000
    5       -2.364846   1.000000
    6       -2.363338   1.000000
    7       -2.322668   1.000000
    8       -2.318812   1.000000
    9       -0.070391   1.000000
   10       -0.062799   1.000000
   11        0.290554   1.000000
   12        0.305338   1.000000
   13        0.687822   1.000000
   14        0.947239   1.000000
   15        1.630792   1.000000
   16        2.253802   1.000000
   17        2.352424   1.000000
   18        2.400460   1.000000
   19        2.530002   1.000000
   20        2.531194   1.000000
   21        3.086430   1.000000
   22        3.208108   1.000000
   23        3.379612   1.000000
   24        3.433085   1.000000
   25        3.815363   1.000000
   26        3.947197   1.000000
   27        4.123662   1.000000
   28        4.355062   1.000000
   29        4.390967   1.000000
   30        4.502033   1.000000
   31        4.687608   1.000000
   32        4.735395   1.000000
   33        4.754370   1.000000
   34        4.764339   1.000000
   35        4.814500   1.000000
   36        4.909120   1.000000
   37        5.009459   1.000000
   38        6.173367   1.000000
   39        6.612812   1.000000
   40        6.617788   1.000000
   41        7.012327   1.000000
   42        7.026089   1.000000
   43        7.869085   1.000000
   44        8.595503   1.000000
   45        8.937421   1.011281
   46        9.013032   0.619833
   47        9.017953   0.579175
   48        9.092770   0.057161
   49        9.282128  -0.000933
   50        9.379148  -0.000004
   51        9.603912  -0.000000
   52        9.790760  -0.000000
   53        9.793731  -0.000000
   54        9.839457  -0.000000
   55        9.902629  -0.000000
   56        9.938506  -0.000000
   57       10.271468  -0.000000
   58       10.302232  -0.000000
   59       11.011175  -0.000000
   60       11.396552  -0.000000

  0.4444444E+00  0.3332800E-15  0.3742002E-15  0.5486968E-02
    1       -4.803122   1.000000
    2       -4.306847   1.000000
    3       -3.313737   1.000000
    4       -3.125199   1.000000
    5       -2.447398   1.000000
    6       -2.446901   1.000000
    7       -2.298344   1.000000
    8       -2.295725   1.000000
    9        0.254902   1.000000
   10        0.261180   1.000000
   11        0.397168   1.000000
   12        0.402849   1.000000
   13        1.201394   1.000000
   14        1.707824   1.000000
   15        1.736355   1.000000
   16        1.829255   1.000000
   17        1.862943   1.000000
   18        2.363574   1.000000
   19        2.520344   1.000000
   20        2.542825   1.000000
   21        2.554637   1.000000
   22        3.233382   1.000000
   23        3.449082   1.000000
   24        3.561773   1.000000
   25        3.564382   1.000000
   26        3.836172   1.000000
   27        4.244945   1.000000
   28        4.257988   1.000000
   29        4.284653   1.000000
   30        4.289776   1.000000
   31        4.410041   1.000000
   32        4.553612   1.000000
   33        4.769735   1.000000
   34        4.793211   1.000000
   35        4.815863   1.000000
   36        4.842615   1.000000
   37        5.299676   1.000000
   38        5.717268   1.000000
   39        6.676976   1.000000
   40        6.682563   1.000000
   41        7.180389   1.000000
   42        7.186481   1.000000
   43        8.215562   1.000000
   44        8.387642   1.000000
   45        8.510007   1.000000
   46        8.704752   1.000025
   47        8.823213   1.006977
   48        8.859906   1.019672
   49        9.254896  -0.002976
   50        9.433008  -0.000000
   51        9.536809  -0.000000
   52        9.581258  -0.000000
   53        9.807369  -0.000000
   54        9.875650  -0.000000
   55        9.901332  -0.000000
   56       10.018939  -0.000000
   57       10.412920  -0.000000
   58       10.624408  -0.000000
   59       10.888455  -0.000000
   60       11.242437  -0.000000

  0.1111111E+00  0.1111111E+00  0.3742002E-15  0.2743484E-02
    1       -5.554855   1.000000
    2       -3.587621   1.000000
    3       -2.691168   1.000000
    4       -2.672580   1.000000
    5       -2.606778   1.000000
    6       -2.476421   1.000000
    7       -2.267346   1.000000
    8       -1.604943   1.000000
    9       -1.213065   1.000000
   10       -0.311538   1.000000
   11       -0.245912   1.000000
   12        0.182963   1.000000
   13        0.223849   1.000000
   14        0.712615   1.000000
   15        0.716874   1.000000
   16        2.481025   1.000000
   17        2.559499   1.000000
   18        2.779381   1.000000
   19        2.785056   1.000000
   20        2.954947   1.000000
   21        3.025163   1.000000
   22        3.232726   1.000000
   23        3.617887   1.000000
   24        3.721240   1.000000
   25        3.898929   1.000000
   26        3.944027   1.000000
   27        3.952609   1.000000
   28        4.117764   1.000000
   29        4.401246   1.000000
   30        4.649679   1.000000
   31        4.813095   1.000000
   32        4.899981   1.000000
   33        4.902731   1.000000
   34        5.221091   1.000000
   35        5.241866   1.000000
   36        5.345841   1.000000
   37        5.415304   1.000000
   38        5.597369   1.000000
   39        5.952218   1.000000
   40        6.867401   1.000000
   41        7.459428   1.000000
   42        7.501959   1.000000
   43        8.147901   1.000000
   44        8.221633   1.000000
   45        8.479006   1.000000
   46        8.655302   1.000001
   47        8.938063   1.010151
   48        9.042722   0.371631
   49        9.602962  -0.000000
   50        9.765959  -0.000000
   51        9.793225  -0.000000
   52        9.876802  -0.000000
   53        9.890411  -0.000000
   54        9.905628  -0.000000
   55       10.166591  -0.000000
   56       10.754312  -0.000000
   57       10.848442  -0.000000
   58       11.408974  -0.000000
   59       11.580127  -0.000000
   60       11.697165  -0.000000

  0.2222222E+00  0.1111111E+00  0.3742002E-15  0.5486968E-02
    1       -5.318830   1.000000
    2       -3.503038   1.000000
    3       -3.365471   1.000000
    4       -2.908436   1.000000
    5       -2.767793   1.000000
    6       -2.571793   1.000000
    7       -2.130405   1.000000
    8       -1.639321   1.000000
    9       -0.826891   1.000000
   10       -0.045078   1.000000
   11        0.193253   1.000000
   12        0.501003   1.000000
   13        0.593557   1.000000
   14        0.798976   1.000000
   15        1.262108   1.000000
   16        2.199790   1.000000
   17        2.441686   1.000000
   18        2.596310   1.000000
   19        2.628956   1.000000
   20        2.962183   1.000000
   21        2.965358   1.000000
   22        3.167827   1.000000
   23        3.480790   1.000000
   24        3.590399   1.000000
   25        3.762547   1.000000
   26        3.938756   1.000000
   27        4.018534   1.000000
   28        4.127961   1.000000
   29        4.346493   1.000000
   30        4.602975   1.000000
   31        4.626691   1.000000
   32        4.734118   1.000000
   33        4.835391   1.000000
   34        4.948629   1.000000
   35        4.962078   1.000000
   36        5.025693   1.000000
   37        5.262059   1.000000
   38        5.840766   1.000000
   39        6.500140   1.000000
   40        6.617272   1.000000
   41        6.848533   1.000000
   42        7.727013   1.000000
   43        7.727625   1.000000
   44        8.324702   1.000000
   45        8.939186   1.008095
   46        9.043443   0.365776
   47        9.063485   0.215238
   48        9.279838  -0.001036
   49        9.399955  -0.000001
   50        9.481732  -0.000000
   51        9.586432  -0.000000
   52        9.618624  -0.000000
   53        9.724291  -0.000000
   54        9.838734  -0.000000
   55        9.953165  -0.000000
   56       10.122093  -0.000000
   57       10.170844  -0.000000
   58       10.426444  -0.000000
   59       11.106932  -0.000000
   60       11.616856  -0.000000

  0.3333333E+00  0.1111111E+00  0.3742002E-15  0.5486968E-02
    1       -4.972501   1.000000
    2       -3.984636   1.000000
    3       -3.375720   1.000000
    4       -3.045221   1.000000
    5       -2.998641   1.000000
    6       -2.585751   1.000000
    7       -2.011726   1.000000
    8       -1.743237   1.000000
    9       -0.261391   1.000000
   10       -0.225433   1.000000
   11        0.667476   1.000000
   12        0.842309   1.000000
   13        0.996759   1.000000
   14        1.366133   1.000000
   15        1.491219   1.000000
   16        1.958496   1.000000
   17        2.124256   1.000000
   18        2.409664   1.000000
   19        2.606785   1.000000
   20        2.675808   1.000000
   21        2.847629   1.000000
   22        3.109539   1.000000
   23        3.251329   1.000000
   24        3.543933   1.000000
   25        3.754732   1.000000
   26        3.905239   1.000000
   27        4.186758   1.000000
   28        4.204060   1.000000
   29        4.280968   1.000000
   30        4.351812   1.000000
   31        4.371629   1.000000
   32        4.436060   1.000000
   33        4.671047   1.000000
   34        4.678383   1.000000
   35        4.953715   1.000000
   36        5.165874   1.000000
   37        5.249177   1.000000
   38        5.898634   1.000000
   39        6.326520   1.000000
   40        6.553610   1.000000
   41        7.300213   1.000000
   42        7.324906   1.000000
   43        8.099687   1.000000
   44        8.474571   1.000000
   45        8.707431   1.000029
   46        8.794012   1.002359
   47        8.798132   1.002785
   48        9.153545  -0.035256
   49        9.190753  -0.021502
   50        9.379781  -0.000004
   51        9.547270  -0.000000
   52        9.646143  -0.000000
   53        9.656289  -0.000000
   54        9.689196  -0.000000
   55        9.891810  -0.000000
   56       10.133449  -0.000000
   57       10.138634  -0.000000
   58       10.324762  -0.000000
   59       10.681352  -0.000000
   60       11.329882  -0.000000

  0.4444444E+00  0.1111111E+00  0.3742002E-15  0.5486968E-02
    1       -4.524410   1.000000
    2       -4.524341   1.000000
    3       -3.208787   1.000000
    4       -3.206605   1.000000
    5       -3.090604   1.000000
    6       -2.584723   1.000000
    7       -1.963249   1.000000
    8       -1.781436   1.000000
    9       -0.292133   1.000000
   10        0.102207   1.000000
   11        0.852598   1.000000
   12        0.926905   1.000000
   13        1.081801   1.000000
   14        1.534518   1.000000
   15        1.550453   1.000000
   16        2.149129   1.000000
   17        2.156511   1.000000
   18        2.330282   1.000000
   19        2.381091   1.000000
   20        2.699151   1.000000
   21        2.747933   1.000000
   22        2.753187   1.000000
   23        3.099480   1.000000
   24        3.608115   1.000000
   25        3.643039   1.000000
   26        3.958980   1.000000
   27        4.145969   1.000000
   28        4.235870   1.000000
   29        4.239611   1.000000
   30        4.354695   1.000000
   31        4.391696   1.000000
   32        4.414274   1.000000
   33        4.505415   1.000000
   34        4.557138   1.000000
   35        5.135973   1.000000
   36        5.136562   1.000000
   37        5.487722   1.000000
   38        5.519756   1.000000
   39        6.110814   1.000000
   40        6.802612   1.000000
   41        7.161901   1.000000
   42        7.832230   1.000000
   43        8.230140   1.000000
   44        8.338052   1.000000
   45        8.635870   1.000000
   46        8.640257   1.000000
   47        8.657887   1.000001
   48        8.668733   1.000002
   49        9.364183  -0.000010
   50        9.364422  -0.000010
   51        9.379013  -0.000004
   52        9.384123  -0.000003
   53        9.660881  -0.000000
   54       10.034656  -0.000000
   55       10.043497  -0.000000
   56       10.184258  -0.000000
   57       10.190682  -0.000000
   58       10.975843  -0.000000
   59       11.105096  -0.000000
   60       11.180067  -0.000000

 -0.4444444E+00  0.1111111E+00  0.3742002E-15  0.5486968E-02
    1       -4.972639   1.000000
    2       -3.984715   1.000000
    3       -3.379851   1.000000
    4       -3.044466   1.000000
    5       -3.001513   1.000000
    6       -2.577809   1.000000
    7       -2.011243   1.000000
    8       -1.744670   1.000000
    9       -0.266286   1.000000
   10       -0.214122   1.000000
   11        0.680749   1.000000
   12        0.835796   1.000000
   13        0.991597   1.000000
   14        1.338818   1.000000
   15        1.540964   1.000000
   16        1.919752   1.000000
   17        2.098456   1.000000
   18        2.433436   1.000000
   19        2.614706   1.000000
   20        2.703203   1.000000
   21        2.882308   1.000000
   22        3.056142   1.000000
   23        3.219975   1.000000
   24        3.548370   1.000000
   25        3.720980   1.000000
   26        3.950684   1.000000
   27        4.123503   1.000000
   28        4.169561   1.000000
   29        4.246093   1.000000
   30        4.312031   1.000000
   31        4.524022   1.000000
   32        4.531745   1.000000
   33        4.547177   1.000000
   34        4.729227   1.000000
   35        4.946289   1.000000
   36        5.204963   1.000000
   37        5.240807   1.000000
   38        5.923741   1.000000
   39        6.332836   1.000000
   40        6.531520   1.000000
   41        7.260398   1.000000
   42        7.309769   1.000000
   43        8.135922   1.000000
   44        8.470618   1.000000
   45        8.683729   1.000007
   46        8.803075   1.003379
   47        8.811684   1.004665
   48        9.159448  -0.034211
   49        9.191914  -0.020973
   50        9.371557  -0.000006
   51        9.548323  -0.000000
   52        9.652192  -0.000000
   53        9.661501  -0.000000
   54        9.693357  -0.000000
   55        9.902598  -0.000000
   56       10.129041  -0.000000
   57       10.230825  -0.000000
   58       10.330181  -0.000000
   59       10.737803  -0.000000
   60       11.535571  -0.000000

 -0.3333333E+00  0.1111111E+00  0.3742002E-15  0.5486968E-02
    1       -5.318976   1.000000
    2       -3.507163   1.000000
    3       -3.365781   1.000000
    4       -2.906987   1.000000
    5       -2.778509   1.000000
    6       -2.563025   1.000000
    7       -2.119011   1.000000
    8       -1.642672   1.000000
    9       -0.829638   1.000000
   10       -0.031360   1.000000
   11        0.208394   1.000000
   12        0.492625   1.000000
   13        0.592177   1.000000
   14        0.791755   1.000000
   15        1.234622   1.000000
   16        2.229148   1.000000
   17        2.459289   1.000000
   18        2.587258   1.000000
   19        2.681356   1.000000
   20        2.903381   1.000000
   21        2.982253   1.000000
   22        3.155770   1.000000
   23        3.437183   1.000000
   24        3.546744   1.000000
   25        3.760916   1.000000
   26        3.979142   1.000000
   27        4.004241   1.000000
   28        4.004850   1.000000
   29        4.443098   1.000000
   30        4.658334   1.000000
   31        4.676101   1.000000
   32        4.731393   1.000000
   33        4.804502   1.000000
   34        4.874267   1.000000
   35        4.993070   1.000000
   36        5.067369   1.000000
   37        5.256220   1.000000
   38        5.980386   1.000000
   39        6.401643   1.000000
   40        6.561327   1.000000
   41        6.860738   1.000000
   42        7.706218   1.000000
   43        7.752757   1.000000
   44        8.320589   1.000000
   45        8.945079   0.995641
   46        9.044279   0.359017
   47        9.072615   0.157032
   48        9.286747  -0.000753
   49        9.396511  -0.000001
   50        9.470598  -0.000000
   51        9.585032  -0.000000
   52        9.615922  -0.000000
   53        9.751829  -0.000000
   54        9.816489  -0.000000
   55       10.059393  -0.000000
   56       10.142661  -0.000000
   57       10.284295  -0.000000
   58       10.412704  -0.000000
   59       11.248092  -0.000000
   60       11.616117  -0.000000

 -0.2222222E+00  0.1111111E+00  0.3742002E-15  0.5486968E-02
    1       -5.554963   1.000000
    2       -3.590538   1.000000
    3       -2.683377   1.000000
    4       -2.679066   1.000000
    5       -2.586491   1.000000
    6       -2.532421   1.000000
    7       -2.220758   1.000000
    8       -1.611386   1.000000
    9       -1.211974   1.000000
   10       -0.277539   1.000000
   11       -0.272300   1.000000
   12        0.188643   1.000000
   13        0.220739   1.000000
   14        0.697904   1.000000
   15        0.711991   1.000000
   16        2.504452   1.000000
   17        2.634783   1.000000
   18        2.691114   1.000000
   19        2.854251   1.000000
   20        2.926596   1.000000
   21        3.001367   1.000000
   22        3.228495   1.000000
   23        3.600979   1.000000
   24        3.733457   1.000000
   25        3.848502   1.000000
   26        3.857152   1.000000
   27        3.976841   1.000000
   28        4.078790   1.000000
   29        4.478461   1.000000
   30        4.673748   1.000000
   31        4.806281   1.000000
   32        4.852006   1.000000
   33        4.935568   1.000000
   34        5.228930   1.000000
   35        5.360227   1.000000
   36        5.374745   1.000000
   37        5.467012   1.000000
   38        5.546706   1.000000
   39        5.867891   1.000000
   40        6.848939   1.000000
   41        7.466745   1.000000
   42        7.511115   1.000000
   43        8.179122   1.000000
   44        8.189511   1.000000
   45        8.473739   1.000000
   46        8.641736   1.000000
   47        8.938564   1.009245
   48        9.050932   0.306482
   49        9.603275  -0.000000
   50        9.776075  -0.000000
   51        9.793866  -0.000000
   52        9.838433  -0.000000
   53        9.856844  -0.000000
   54        9.907904  -0.000000
   55       10.217136  -0.000000
   56       10.791582  -0.000000
   57       10.843873  -0.000000
   58       11.531181  -0.000000
   59       11.595287  -0.000000
   60       11.669139  -0.000000

 -0.1111111E+00  0.1111111E+00  0.3742002E-15  0.2743484E-02
    1       -5.674527   1.000000
    2       -3.631170   1.000000
    3       -2.518295   1.000000
    4       -2.476207   1.000000
    5       -2.363753   1.000000
    6       -2.259266   1.000000
    7       -2.002712   1.000000
    8       -1.952735   1.000000
    9       -1.050286   1.000000
   10       -1.048268   1.000000
   11       -0.700716   1.000000
   12        0.051371   1.000000
   13        0.351895   1.000000
   14        0.440905   1.000000
   15        0.584330   1.000000
   16        2.514117   1.000000
   17        2.577941   1.000000
   18        2.627006   1.000000
   19        2.863787   1.000000
   20        2.952311   1.000000
   21        3.161702   1.000000
   22        3.517481   1.000000
   23        3.721220   1.000000
   24        3.788910   1.000000
   25        3.804072   1.000000
   26        3.918944   1.000000
   27        4.029395   1.000000
   28        4.439288   1.000000
   29        4.482202   1.000000
   30        4.705192   1.000000
   31        4.854558   1.000000
   32        4.892637   1.000000
   33        4.948063   1.000000
   34        4.961975   1.000000
   35        5.155926   1.000000
   36        5.262792   1.000000
   37        5.566270   1.000000
   38        6.064217   1.000000
   39        6.169923   1.000000
   40        7.115007   1.000000
   41        7.313871   1.000000
   42        7.862074   1.000000
   43        7.939499   1.000000
   44        8.118047   1.000000
   45        8.259467   1.000000
   46        8.414430   1.000000
   47        8.883758   1.030386
   48        9.106015   0.013457
   49        9.288999  -0.000678
   50        9.810447  -0.000000
   51        9.877077  -0.000000
   52        9.973178  -0.000000
   53       10.004676  -0.000000
   54       10.149413  -0.000000
   55       11.102374  -0.000000
   56       11.163834  -0.000000
   57       11.264778  -0.000000
   58       11.390346  -0.000000
   59       11.690610  -0.000000
   60       12.851604   0.000000

  0.2222222E+00  0.2222222E+00  0.3742002E-15  0.2743484E-02
    1       -5.029310   1.000000
    2       -3.587395   1.000000
    3       -3.535297   1.000000
    4       -3.396155   1.000000
    5       -2.844399   1.000000
    6       -2.794576   1.000000
    7       -1.871115   1.000000
    8       -1.041907   1.000000
    9       -0.959831   1.000000
   10       -0.433282   1.000000
   11        0.870177   1.000000
   12        1.016952   1.000000
   13        1.025494   1.000000
   14        1.316946   1.000000
   15        1.404501   1.000000
   16        1.536508   1.000000
   17        2.372425   1.000000
   18        2.513393   1.000000
   19        2.579607   1.000000
   20        2.781135   1.000000
   21        3.081399   1.000000
   22        3.123075   1.000000
   23        3.272155   1.000000
   24        3.551907   1.000000
   25        3.627358   1.000000
   26        3.837253   1.000000
   27        3.934354   1.000000
   28        4.185385   1.000000
   29        4.219869   1.000000
   30        4.383602   1.000000
   31        4.445377   1.000000
   32        4.455110   1.000000
   33        4.729209   1.000000
   34        4.789745   1.000000
   35        4.790080   1.000000
   36        5.190351   1.000000
   37        5.612786   1.000000
   38        5.862395   1.000000
   39        6.194538   1.000000
   40        6.234937   1.000000
   41        7.306340   1.000000
   42        7.953300   1.000000
   43        7.968729   1.000000
   44        8.047921   1.000000
   45        8.753855   1.000380
   46        8.951115   0.979790
   47        9.121965  -0.018593
   48        9.126896  -0.024645
   49        9.170692  -0.030490
   50        9.455663  -0.000000
   51        9.494721  -0.000000
   52        9.565585  -0.000000
   53        9.682531  -0.000000
   54        9.753848  -0.000000
   55        9.838228  -0.000000
   56       10.037938  -0.000000
   57       10.181723  -0.000000
   58       10.214348  -0.000000
   59       10.908889  -0.000000
   60       11.201506  -0.000000

  0.3333333E+00  0.2222222E+00  0.3742002E-15  0.5486968E-02
    1       -4.633845   1.000000
    2       -4.142631   1.000000
    3       -3.657253   1.000000
    4       -3.246284   1.000000
    5       -3.064705   1.000000
    6       -2.827595   1.000000
    7       -1.642179   1.000000
    8       -1.075415   1.000000
    9       -0.728800   1.000000
   10       -0.387295   1.000000
   11        0.695201   1.000000
   12        1.334574   1.000000
   13        1.431795   1.000000
   14        1.484772   1.000000
   15        1.751909   1.000000
   16        1.998599   1.000000
   17        2.173719   1.000000
   18        2.329873   1.000000
   19        2.423789   1.000000
   20        2.564898   1.000000
   21        2.914501   1.000000
   22        2.925011   1.000000
   23        2.988134   1.000000
   24        3.374568   1.000000
   25        3.708210   1.000000
   26        3.735784   1.000000
   27        4.010196   1.000000
   28        4.109535   1.000000
   29        4.200106   1.000000
   30        4.241811   1.000000
   31        4.316943   1.000000
   32        4.434599   1.000000
   33        4.671806   1.000000
   34        4.733677   1.000000
   35        5.021199   1.000000