   49   49   85    1
  0.2046891E+02  0.8733603E-09  0.6079487E-09  0.2183401E-08  0.5000000E-15
   1.0000000000000000E-004
  CAR 
 Name                                    
    185     50    120

  0.3742002E-15  0.3742002E-15  0.1262379E-14  0.1010101E-01
    1      -13.299366   1.000000
    2      -11.932158   1.000000
    3      -11.854452   1.000000
    4      -11.441967   1.000000
    5      -10.676137   1.000000
    6      -10.520099   1.000000
    7      -10.394751   1.000000
    8      -10.314760   1.000000
    9      -10.168371   1.000000
   10      -10.018101   1.000000
   11      -10.005799   1.000000
   12       -9.595660   1.000000
   13       -9.473046   1.000000
   14       -9.464171   1.000000
   15       -9.065938   1.000000
   16       -9.055124   1.000000
   17       -8.132156   1.000000
   18       -8.028253   1.000000
   19       -8.025255   1.000000
   20       -7.743119   1.000000
   21       -7.739388   1.000000
   22       -7.475477   1.000000
   23       -7.431092   1.000000
   24       -7.346292   1.000000
   25       -7.320464   1.000000
   26       -7.281203   1.000000
   27       -6.600997   1.000000
   28       -6.209795   1.000000
   29       -5.744305   1.000000
   30       -5.679213   1.000000
   31       -5.648753   1.000000
   32       -5.349732   1.000000
   33       -5.062347   1.000000
   34       -5.044432   1.000000
   35       -4.950406   1.000000
   36       -4.739802   1.000000
   37       -4.642163   1.000000
   38       -4.594167   1.000000
   39       -4.492750   1.000000
   40       -4.336820   1.000000
   41       -4.278135   1.000000
   42       -4.223113   1.000000
   43       -4.131144   1.000000
   44       -4.066490   1.000000
   45       -3.972094   1.000000
   46       -3.890135   1.000000
   47       -3.861297   1.000000
   48       -3.807393   1.000000
   49       -3.797289   1.000000
   50       -3.715099   1.000000
   51       -3.711025   1.000000
   52       -3.495376   1.000000
   53       -3.356330   1.000000
   54       -3.282459   1.000000
   55       -3.257203   1.000000
   56       -3.159978   1.000000
   57       -3.136194   1.000000
   58       -3.072598   1.000000
   59       -2.910638   1.000000
   60       -2.843547   1.000000
   61       -2.825517   1.000000
   62       -2.795766   1.000000
   63       -2.668055   1.000000
   64       -2.623656   1.000000
   65       -2.568768   1.000000
   66       -2.480642   1.000000
   67       -2.445551   1.000000
   68       -2.378758   1.000000
   69       -2.337453   1.000000
   70       -2.264297   1.000000
   71       -1.860064   1.000000
   72       -1.775738   1.000000
   73       -1.748044   1.000000
   74       -1.573502   1.000000
   75       -1.505139   1.000000
   76       -1.475573   1.000000
   77       -1.463044   1.000000
   78       -1.318897   1.000000
   79       -1.270031   1.000000
   80       -1.196057   1.000000
   81       -1.090368   1.000000
   82       -0.860191   1.000000
   83       -0.676571   1.000000
   84       -0.421896   1.000000
   85       -0.391307   1.000000
   86       -0.170083   1.000000
   87       -0.081109   1.000000
   88       -0.065548   1.000000
   89       -0.028906   1.000000
   90        0.372293   1.003927
   91        0.395421   1.008743
   92        0.623672   0.250737
   93        0.713336  -0.035409
   94        0.742832  -0.027557
   95        0.815622  -0.003549
   96        0.863589  -0.000431
   97        0.989721  -0.000000
   98        1.074770  -0.000000
   99        1.199628  -0.000000
  100        1.222363  -0.000000
  101        1.230721  -0.000000
  102        1.318186  -0.000000
  103        1.346749  -0.000000
  104        1.378669  -0.000000
  105        1.390607  -0.000000
  106        1.752274  -0.000000
  107        1.767028  -0.000000
  108        1.819840  -0.000000
  109        1.831280  -0.000000
  110        1.841846  -0.000000
  111        1.903597  -0.000000
  112        1.950659  -0.000000
  113        1.986146  -0.000000
  114        2.016145  -0.000000
  115        2.099947  -0.000000
  116        2.133309  -0.000000
  117        2.180397  -0.000000
  118        2.358097  -0.000000
  119        2.387730  -0.000000
  120        2.397741  -0.000000

  0.1111111E+00  0.3694577E-15  0.1266495E-14  0.2020202E-01
    1      -13.274294   1.000000
    2      -11.982704   1.000000
    3      -11.910263   1.000000
    4      -11.362862   1.000000
    5      -10.665889   1.000000
    6      -10.548819   1.000000
    7      -10.383182   1.000000
    8      -10.316884   1.000000
    9      -10.170790   1.000000
   10      -10.009375   1.000000
   11       -9.996272   1.000000
   12       -9.597209   1.000000
   13       -9.474399   1.000000
   14       -9.467651   1.000000
   15       -9.048954   1.000000
   16       -9.037450   1.000000
   17       -8.121698   1.000000
   18       -8.029479   1.000000
   19       -8.019851   1.000000
   20       -7.754717   1.000000
   21       -7.751168   1.000000
   22       -7.527621   1.000000
   23       -7.514560   1.000000
   24       -7.326756   1.000000
   25       -7.320621   1.000000
   26       -7.216805   1.000000
   27       -6.687039   1.000000
   28       -6.225336   1.000000
   29       -5.712241   1.000000
   30       -5.655641   1.000000
   31       -5.555715   1.000000
   32       -5.331737   1.000000
   33       -5.082227   1.000000
   34       -5.041358   1.000000
   35       -4.948680   1.000000
   36       -4.909226   1.000000
   37       -4.598275   1.000000
   38       -4.572934   1.000000
   39       -4.384294   1.000000
   40       -4.349411   1.000000
   41       -4.338145   1.000000
   42       -4.120538   1.000000
   43       -4.097002   1.000000
   44       -4.052643   1.000000
   45       -3.923003   1.000000
   46       -3.907992   1.000000
   47       -3.885102   1.000000
   48       -3.797431   1.000000
   49       -3.780456   1.000000
   50       -3.702376   1.000000
   51       -3.689866   1.000000
   52       -3.486187   1.000000
   53       -3.346104   1.000000
   54       -3.283942   1.000000
   55       -3.236193   1.000000
   56       -3.181156   1.000000
   57       -3.162115   1.000000
   58       -3.101275   1.000000
   59       -2.938285   1.000000
   60       -2.838184   1.000000
   61       -2.823740   1.000000
   62       -2.772653   1.000000
   63       -2.680036   1.000000
   64       -2.665051   1.000000
   65       -2.554394   1.000000
   66       -2.510448   1.000000
   67       -2.414592   1.000000
   68       -2.353861   1.000000
   69       -2.334485   1.000000
   70       -2.245077   1.000000
   71       -1.894329   1.000000
   72       -1.852006   1.000000
   73       -1.724084   1.000000
   74       -1.604222   1.000000
   75       -1.549298   1.000000
   76       -1.498084   1.000000
   77       -1.487137   1.000000
   78       -1.360875   1.000000
   79       -1.290990   1.000000
   80       -1.220248   1.000000
   81       -1.016266   1.000000
   82       -0.769187   1.000000
   83       -0.717565   1.000000
   84       -0.457966   1.000000
   85       -0.423271   1.000000
   86       -0.176910   1.000000
   87       -0.083495   1.000000
   88       -0.014759   1.000000
   89        0.037667   1.000000
   90        0.332412   1.000725
   91        0.351547   1.001709
   92        0.598260   0.452357
   93        0.700866  -0.031704
   94        0.834512  -0.001651
   95        0.851269  -0.000780
   96        0.900009  -0.000061
   97        0.933998  -0.000008
   98        1.094603  -0.000000
   99        1.157832  -0.000000
  100        1.251510  -0.000000
  101        1.260935  -0.000000
  102        1.336020  -0.000000
  103        1.365945  -0.000000
  104        1.393013  -0.000000
  105        1.412879  -0.000000
  106        1.773299  -0.000000
  107        1.786273  -0.000000
  108        1.815916  -0.000000
  109        1.822400  -0.000000
  110        1.862387  -0.000000
  111        1.910699  -0.000000
  112        1.944854  -0.000000
  113        1.987778  -0.000000
  114        2.041707  -0.000000
  115        2.107304  -0.000000
  116        2.142190  -0.000000
  117        2.171435  -0.000000
  118        2.337654  -0.000000
  119        2.369608  -0.000000
  120        2.414210  -0.000000

  0.2222222E+00  0.3681327E-15  0.1265439E-14  0.2020202E-01
    1      -13.199723   1.000000
    2      -12.221370   1.000000
    3      -11.845813   1.000000
    4      -11.290418   1.000000
    5      -10.638429   1.000000
    6      -10.591893   1.000000
    7      -10.357869   1.000000
    8      -10.322179   1.000000
    9      -10.161468   1.000000
   10       -9.991367   1.000000
   11       -9.970976   1.000000
   12       -9.627057   1.000000
   13       -9.488758   1.000000
   14       -9.468376   1.000000
   15       -8.997559   1.000000
   16       -8.985695   1.000000
   17       -8.079802   1.000000
   18       -8.039553   1.000000
   19       -7.999114   1.000000
   20       -7.808715   1.000000
   21       -7.803317   1.000000
   22       -7.617572   1.000000
   23       -7.608090   1.000000
   24       -7.351851   1.000000
   25       -7.338248   1.000000
   26       -7.060997   1.000000
   27       -6.892645   1.000000
   28       -6.206353   1.000000
   29       -5.657047   1.000000
   30       -5.623882   1.000000
   31       -5.480649   1.000000
   32       -5.320123   1.000000
   33       -5.214206   1.000000
   34       -5.013974   1.000000
   35       -4.909464   1.000000
   36       -4.899880   1.000000
   37       -4.608990   1.000000
   38       -4.453401   1.000000
   39       -4.363293   1.000000
   40       -4.335934   1.000000
   41       -4.279861   1.000000
   42       -4.115795   1.000000
   43       -4.027814   1.000000
   44       -4.001406   1.000000
   45       -3.962904   1.000000
   46       -3.857998   1.000000
   47       -3.818193   1.000000
   48       -3.781028   1.000000
   49       -3.721282   1.000000
   50       -3.683316   1.000000
   51       -3.628917   1.000000
   52       -3.481193   1.000000
   53       -3.346181   1.000000
   54       -3.284421   1.000000
   55       -3.250267   1.000000
   56       -3.231855   1.000000
   57       -3.168652   1.000000
   58       -3.106495   1.000000
   59       -2.962432   1.000000
   60       -2.852330   1.000000
   61       -2.820962   1.000000
   62       -2.757540   1.000000
   63       -2.716408   1.000000
   64       -2.667435   1.000000
   65       -2.591309   1.000000
   66       -2.563980   1.000000
   67       -2.398838   1.000000
   68       -2.347792   1.000000
   69       -2.235007   1.000000
   70       -2.194408   1.000000
   71       -2.033549   1.000000
   72       -1.951557   1.000000
   73       -1.706156   1.000000
   74       -1.697291   1.000000
   75       -1.618665   1.000000
   76       -1.567878   1.000000
   77       -1.538454   1.000000
   78       -1.447272   1.000000
   79       -1.330499   1.000000
   80       -1.245660   1.000000
   81       -0.901070   1.000000
   82       -0.830496   1.000000
   83       -0.557467   1.000000
   84       -0.548409   1.000000
   85       -0.497776   1.000000
   86       -0.137906   1.000000
   87       -0.051510   1.000000
   88        0.025884   1.000000
   89        0.223365   1.000001
   90        0.236792   1.000003
   91        0.259410   1.000013
   92        0.518007   0.974956
   93        0.768234  -0.016173
   94        0.830159  -0.001984
   95        0.886974  -0.000128
   96        0.924328  -0.000014
   97        1.039248  -0.000000
   98        1.106043  -0.000000
   99        1.173364  -0.000000
  100        1.245251  -0.000000
  101        1.316807  -0.000000
  102        1.362889  -0.000000
  103        1.397552  -0.000000
  104        1.451674  -0.000000
  105        1.491936  -0.000000
  106        1.748318  -0.000000
  107        1.799557  -0.000000
  108        1.825497  -0.000000
  109        1.856058  -0.000000
  110        1.903046  -0.000000
  111        1.936165  -0.000000
  112        1.954803  -0.000000
  113        1.997948  -0.000000
  114        2.074357  -0.000000
  115        2.102097  -0.000000
  116        2.177592  -0.000000
  117        2.213604  -0.000000
  118        2.297952  -0.000000
  119        2.340173  -0.000000
  120        2.351198  -0.000000

  0.3333333E+00  0.3672355E-15  0.1308213E-14  0.2020202E-01
    1      -13.077651   1.000000
    2      -12.472320   1.000000
    3      -11.742789   1.000000
    4      -11.335012   1.000000
    5      -10.603773   1.000000
    6      -10.592262   1.000000
    7      -10.341740   1.000000
    8      -10.327552   1.000000
    9      -10.111024   1.000000
   10       -9.972901   1.000000
   11       -9.942322   1.000000
   12       -9.716914   1.000000
   13       -9.496087   1.000000
   14       -9.474007   1.000000
   15       -8.919152   1.000000
   16       -8.909700   1.000000
   17       -8.092917   1.000000
   18       -8.088300   1.000000
   19       -7.922311   1.000000
   20       -7.877240   1.000000
   21       -7.857784   1.000000
   22       -7.665820   1.000000
   23       -7.618738   1.000000
   24       -7.406167   1.000000
   25       -7.395308   1.000000
   26       -7.139855   1.000000
   27       -6.843934   1.000000
   28       -6.086966   1.000000
   29       -5.863345   1.000000
   30       -5.612542   1.000000
   31       -5.600290   1.000000
   32       -5.350532   1.000000
   33       -5.029479   1.000000
   34       -4.942991   1.000000
   35       -4.833364   1.000000
   36       -4.814494   1.000000
   37       -4.520890   1.000000
   38       -4.479597   1.000000
   39       -4.288772   1.000000
   40       -4.241070   1.000000
   41       -4.216780   1.000000
   42       -4.189752   1.000000
   43       -4.073515   1.000000
   44       -4.018861   1.000000
   45       -3.951009   1.000000
   46       -3.788241   1.000000
   47       -3.781469   1.000000
   48       -3.705949   1.000000
   49       -3.688474   1.000000
   50       -3.628969   1.000000
   51       -3.550463   1.000000
   52       -3.503623   1.000000
   53       -3.415057   1.000000
   54       -3.321269   1.000000
   55       -3.248131   1.000000
   56       -3.220348   1.000000
   57       -3.087316   1.000000
   58       -3.075454   1.000000
   59       -2.979997   1.000000
   60       -2.857353   1.000000
   61       -2.833691   1.000000
   62       -2.790717   1.000000
   63       -2.770343   1.000000
   64       -2.670280   1.000000
   65       -2.620704   1.000000
   66       -2.546761   1.000000
   67       -2.456243   1.000000
   68       -2.315561   1.000000
   69       -2.227910   1.000000
   70       -2.146689   1.000000
   71       -2.127565   1.000000
   72       -2.001020   1.000000
   73       -1.809662   1.000000
   74       -1.798011   1.000000
   75       -1.648629   1.000000
   76       -1.614705   1.000000
   77       -1.555839   1.000000
   78       -1.539147   1.000000
   79       -1.360098   1.000000
   80       -1.254082   1.000000
   81       -1.056061   1.000000
   82       -0.698444   1.000000
   83       -0.657726   1.000000
   84       -0.612526   1.000000
   85       -0.306120   1.000000
   86       -0.090641   1.000000
   87        0.032914   1.000000
   88        0.059348   1.000000
   89        0.130547   1.000000
   90        0.167963   1.000000
   91        0.408010   1.012723
   92        0.464503   1.035004
   93        0.716737  -0.035417
   94        0.819451  -0.003060
   95        0.916487  -0.000023
   96        0.977761  -0.000000
   97        1.056425  -0.000000
   98        1.093883  -0.000000
   99        1.205508  -0.000000
  100        1.331778  -0.000000
  101        1.419932  -0.000000
  102        1.469167  -0.000000
  103        1.490385  -0.000000
  104        1.506969  -0.000000
  105        1.557353  -0.000000
  106        1.624299  -0.000000
  107        1.779763  -0.000000
  108        1.833151  -0.000000
  109        1.876093  -0.000000
  110        1.938302  -0.000000
  111        1.986224  -0.000000
  112        2.010632  -0.000000
  113        2.031132  -0.000000
  114        2.078108  -0.000000
  115        2.138064  -0.000000
  116        2.217323  -0.000000
  117        2.241134  -0.000000
  118        2.259112  -0.000000
  119        2.274198  -0.000000
  120        2.334463  -0.000000

  0.4444444E+00  0.3795814E-15  0.1235432E-14  0.2020202E-01
    1      -12.911685   1.000000
    2      -12.706833   1.000000
    3      -11.609424   1.000000
    4      -11.462056   1.000000
    5      -10.577903   1.000000
    6      -10.573817   1.000000
    7      -10.339998   1.000000
    8      -10.330237   1.000000
    9      -10.024121   1.000000
   10       -9.970235   1.000000
   11       -9.911597   1.000000
   12       -9.835123   1.000000
   13       -9.494878   1.000000
   14       -9.483839   1.000000
   15       -8.848383   1.000000
   16       -8.843745   1.000000
   17       -8.172522   1.000000
   18       -8.167481   1.000000
   19       -7.885124   1.000000
   20       -7.881258   1.000000
   21       -7.783394   1.000000
   22       -7.706988   1.000000
   23       -7.551478   1.000000
   24       -7.452380   1.000000
   25       -7.444569   1.000000
   26       -7.372131   1.000000
   27       -6.571446   1.000000
   28       -6.238759   1.000000
   29       -5.872098   1.000000
   30       -5.617439   1.000000
   31       -5.591146   1.000000
   32       -5.582932   1.000000
   33       -4.842297   1.000000
   34       -4.802682   1.000000
   35       -4.726281   1.000000
   36       -4.690840   1.000000
   37       -4.564621   1.000000
   38       -4.499721   1.000000
   39       -4.289005   1.000000
   40       -4.273127   1.000000
   41       -4.216041   1.000000
   42       -4.129015   1.000000
   43       -4.087965   1.000000
   44       -4.040722   1.000000
   45       -3.856290   1.000000
   46       -3.825432   1.000000
   47       -3.806550   1.000000
   48       -3.742201   1.000000
   49       -3.609768   1.000000
   50       -3.564920   1.000000
   51       -3.536641   1.000000
   52       -3.506215   1.000000
   53       -3.423599   1.000000
   54       -3.349539   1.000000
   55       -3.214740   1.000000
   56       -3.169225   1.000000
   57       -3.084207   1.000000
   58       -3.034656   1.000000
   59       -2.947185   1.000000
   60       -2.875646   1.000000
   61       -2.863300   1.000000
   62       -2.815932   1.000000
   63       -2.782623   1.000000
   64       -2.752410   1.000000
   65       -2.563108   1.000000
   66       -2.513434   1.000000
   67       -2.469654   1.000000
   68       -2.383154   1.000000
   69       -2.294578   1.000000
   70       -2.182425   1.000000
   71       -2.127813   1.000000
   72       -1.955960   1.000000
   73       -1.879478   1.000000
   74       -1.814285   1.000000
   75       -1.709115   1.000000
   76       -1.664420   1.000000
   77       -1.641714   1.000000
   78       -1.432314   1.000000
   79       -1.374736   1.000000
   80       -1.296119   1.000000
   81       -1.188461   1.000000
   82       -0.738088   1.000000
   83       -0.725381   1.000000
   84       -0.500835   1.000000
   85       -0.157284   1.000000
   86       -0.113245   1.000000
   87       -0.033726   1.000000
   88        0.083172   1.000000
   89        0.133009   1.000000
   90        0.283484   1.000056
   91        0.330001   1.000647
   92        0.563833   0.732791
   93        0.702483  -0.032567
   94        0.717114  -0.035397
   95        0.906404  -0.000042
   96        0.964597  -0.000001
   97        1.072794  -0.000000
   98        1.152535  -0.000000
   99        1.294126  -0.000000
  100        1.336898  -0.000000
  101        1.440198  -0.000000
  102        1.468328  -0.000000
  103        1.540586  -0.000000
  104        1.553315  -0.000000
  105        1.625299  -0.000000
  106        1.735750  -0.000000
  107        1.769907  -0.000000
  108        1.813623  -0.000000
  109        1.916477  -0.000000
  110        1.931215  -0.000000
  111        2.022184  -0.000000
  112        2.052168  -0.000000
  113        2.093979  -0.000000
  114        2.116912  -0.000000
  115        2.134013  -0.000000
  116        2.163789  -0.000000
  117        2.196850  -0.000000
  118        2.205124  -0.000000
  119        2.220235  -0.000000
  120        2.298242  -0.000000

  0.3742002E-15  0.9090909E-01  0.1339361E-14  0.2020202E-01
    1      -13.266790   1.000000
    2      -11.903561   1.000000
    3      -11.863311   1.000000
    4      -11.402574   1.000000
    5      -10.662125   1.000000
    6      -10.584263   1.000000
    7      -10.534854   1.000000
    8      -10.504897   1.000000
    9      -10.251872   1.000000
   10       -9.953935   1.000000
   11       -9.864960   1.000000
   12       -9.557554   1.000000
   13       -9.470711   1.000000
   14       -9.455023   1.000000
   15       -9.010808   1.000000
   16       -9.007263   1.000000
   17       -8.151779   1.000000
   18       -8.063146   1.000000
   19       -8.039162   1.000000
   20       -7.923104   1.000000
   21       -7.875719   1.000000
   22       -7.319516   1.000000
   23       -7.250890   1.000000
   24       -7.213968   1.000000
   25       -7.147626   1.000000
   26       -7.100371   1.000000
   27       -6.643510   1.000000
   28       -6.187072   1.000000
   29       -5.768424   1.000000
   30       -5.678652   1.000000
   31       -5.622309   1.000000
   32       -5.370528   1.000000
   33       -5.213787   1.000000
   34       -4.951313   1.000000
   35       -4.892992   1.000000
   36       -4.775573   1.000000
   37       -4.618853   1.000000
   38       -4.573909   1.000000
   39       -4.465743   1.000000
   40       -4.382520   1.000000
   41       -4.356015   1.000000
   42       -4.249225   1.000000
   43       -4.240771   1.000000
   44       -4.084448   1.000000
   45       -4.049698   1.000000
   46       -3.993261   1.000000
   47       -3.867085   1.000000
   48       -3.795565   1.000000
   49       -3.777143   1.000000
   50       -3.762446   1.000000
   51       -3.667202   1.000000
   52       -3.497222   1.000000
   53       -3.438434   1.000000
   54       -3.386942   1.000000
   55       -3.280765   1.000000
   56       -3.141642   1.000000
   57       -3.114592   1.000000
   58       -3.050452   1.000000
   59       -2.926686   1.000000
   60       -2.841363   1.000000
   61       -2.794256   1.000000
   62       -2.769141   1.000000
   63       -2.700581   1.000000
   64       -2.599604   1.000000
   65       -2.580812   1.000000
   66       -2.482023   1.000000
   67       -2.452159   1.000000
   68       -2.356992   1.000000
   69       -2.297684   1.000000
   70       -2.218445   1.000000
   71       -2.006936   1.000000
   72       -1.834651   1.000000
   73       -1.743052   1.000000
   74       -1.533551   1.000000
   75       -1.513431   1.000000
   76       -1.474979   1.000000
   77       -1.442680   1.000000
   78       -1.311552   1.000000
   79       -1.227281   1.000000
   80       -1.182783   1.000000
   81       -1.067503   1.000000
   82       -0.863470   1.000000
   83       -0.619261   1.000000
   84       -0.475120   1.000000
   85       -0.377756   1.000000
   86       -0.227716   1.000000
   87       -0.167108   1.000000
   88       -0.112178   1.000000
   89       -0.031721   1.000000
   90        0.292827   1.000094
   91        0.413972   1.014956
   92        0.574302   0.652179
   93        0.645767   0.113111
   94        0.680834  -0.008181
   95        0.738579  -0.029410
   96        0.873720  -0.000258
   97        0.983978  -0.000000
   98        1.060654  -0.000000
   99        1.104047  -0.000000
  100        1.204801  -0.000000
  101        1.296064  -0.000000
  102        1.381449  -0.000000
  103        1.414879  -0.000000
  104        1.452895  -0.000000
  105        1.554845  -0.000000
  106        1.715007  -0.000000
  107        1.755280  -0.000000
  108        1.789702  -0.000000
  109        1.838618  -0.000000
  110        1.861603  -0.000000
  111        1.926085  -0.000000
  112        1.945282  -0.000000
  113        1.985732  -0.000000
  114        2.029738  -0.000000
  115        2.118090  -0.000000
  116        2.161757  -0.000000
  117        2.183102  -0.000000
  118        2.324839  -0.000000
  119        2.346868  -0.000000
  120        2.387581  -0.000000

  0.1111111E+00  0.9090909E-01  0.1250028E-14  0.2020202E-01
    1      -13.221384   1.000000
    2      -12.055639   1.000000
    3      -11.864236   1.000000
    4      -11.301285   1.000000
    5      -10.651063   1.000000
    6      -10.640095   1.000000
    7      -10.547230   1.000000
    8      -10.476701   1.000000
    9      -10.197894   1.000000
   10       -9.946678   1.000000
   11       -9.838608   1.000000
   12       -9.569715   1.000000
   13       -9.517627   1.000000
   14       -9.482638   1.000000
   15       -8.979991   1.000000
   16       -8.937881   1.000000
   17       -8.180734   1.000000
   18       -8.054164   1.000000
   19       -8.004965   1.000000
   20       -8.000490   1.000000
   21       -7.862578   1.000000
   22       -7.468007   1.000000
   23       -7.278113   1.000000
   24       -7.157091   1.000000
   25       -7.109031   1.000000
   26       -7.084069   1.000000
   27       -6.768595   1.000000
   28       -6.200856   1.000000
   29       -5.775334   1.000000
   30       -5.614404   1.000000
   31       -5.443274   1.000000
   32       -5.353763   1.000000
   33       -5.247379   1.000000
   34       -5.095026   1.000000
   35       -4.919827   1.000000
   36       -4.783496   1.000000
   37       -4.584589   1.000000
   38       -4.527820   1.000000
   39       -4.422959   1.000000
   40       -4.375722   1.000000
   41       -4.371260   1.000000
   42       -4.240781   1.000000
   43       -4.130313   1.000000
   44       -4.037935   1.000000
   45       -4.016588   1.000000
   46       -3.911971   1.000000
   47       -3.850825   1.000000
   48       -3.801689   1.000000
   49       -3.779319   1.000000
   50       -3.727327   1.000000
   51       -3.656168   1.000000
   52       -3.509777   1.000000
   53       -3.411587   1.000000
   54       -3.379894   1.000000
   55       -3.213711   1.000000
   56       -3.207492   1.000000
   57       -3.134453   1.000000
   58       -3.032479   1.000000
   59       -2.970673   1.000000
   60       -2.862399   1.000000
   61       -2.808382   1.000000
   62       -2.764022   1.000000
   63       -2.735946   1.000000
   64       -2.640381   1.000000
   65       -2.587621   1.000000
   66       -2.508304   1.000000
   67       -2.437380   1.000000
   68       -2.299998   1.000000
   69       -2.266435   1.000000
   70       -2.223689   1.000000
   71       -2.065003   1.000000
   72       -1.908011   1.000000
   73       -1.707479   1.000000
   74       -1.630580   1.000000
   75       -1.599223   1.000000
   76       -1.514610   1.000000
   77       -1.507185   1.000000
   78       -1.359397   1.000000
   79       -1.265022   1.000000
   80       -1.161905   1.000000
   81       -0.962047   1.000000
   82       -0.868852   1.000000
   83       -0.606148   1.000000
   84       -0.577270   1.000000
   85       -0.396522   1.000000
   86       -0.220962   1.000000
   87       -0.146017   1.000000
   88        0.023722   1.000000
   89        0.054285   1.000000
   90        0.243452   1.000005
   91        0.359005   1.002333
   92        0.566359   0.713975
   93        0.671184   0.013720
   94        0.743296  -0.027349
   95        0.842286  -0.001175
   96        0.877786  -0.000209
   97        0.962270  -0.000001
   98        1.037880  -0.000000
   99        1.059872  -0.000000
  100        1.262521  -0.000000
  101        1.369855  -0.000000
  102        1.402010  -0.000000
  103        1.412104  -0.000000
  104        1.506990  -0.000000
  105        1.524731  -0.000000
  106        1.711270  -0.000000
  107        1.798775  -0.000000
  108        1.811403  -0.000000
  109        1.819655  -0.000000
  110        1.853953  -0.000000
  111        1.931778  -0.000000
  112        1.951247  -0.000000
  113        2.014999  -0.000000
  114        2.053527  -0.000000
  115        2.112285  -0.000000
  116        2.157576  -0.000000
  117        2.223296  -0.000000
  118        2.300209  -0.000000
  119        2.334314  -0.000000
  120        2.351194  -0.000000

  0.2222222E+00  0.9090909E-01  0.1327369E-14  0.2020202E-01
    1      -13.127367   1.000000
    2      -12.302194   1.000000
    3      -11.784103   1.000000
    4      -11.274413   1.000000
    5      -10.702943   1.000000
    6      -10.608336   1.000000
    7      -10.575208   1.000000
    8      -10.420476   1.000000
    9      -10.118631   1.000000
   10       -9.912357   1.000000
   11       -9.789306   1.000000
   12       -9.645845   1.000000
   13       -9.583579   1.000000
   14       -9.518993   1.000000
   15       -8.902214   1.000000
   16       -8.828204   1.000000
   17       -8.223152   1.000000
   18       -8.183972   1.000000
   19       -7.933147   1.000000
   20       -7.928023   1.000000
   21       -7.888714   1.000000
   22       -7.629150   1.000000
   23       -7.378764   1.000000
   24       -7.149026   1.000000
   25       -7.111036   1.000000
   26       -6.951352   1.000000
   27       -6.947999   1.000000
   28       -6.149112   1.000000
   29       -5.792473   1.000000
   30       -5.609350   1.000000
   31       -5.538304   1.000000
   32       -5.275038   1.000000
   33       -5.178058   1.000000
   34       -5.115445   1.000000
   35       -4.928426   1.000000
   36       -4.711453   1.000000
   37       -4.579704   1.000000
   38       -4.454268   1.000000
   39       -4.409124   1.000000
   40       -4.334933   1.000000
   41       -4.317091   1.000000
   42       -4.218737   1.000000
   43       -4.052434   1.000000
   44       -4.006400   1.000000
   45       -3.967532   1.000000
   46       -3.857592   1.000000
   47       -3.824553   1.000000
   48       -3.795606   1.000000