   47   47   40    1
  0.2513960E+02  0.8645320E-09  0.6085000E-09  0.2593596E-08  0.5000000E-15
   1.0000000000000000E-004
  CAR 
 Name                                    
    177    149    114

  0.3742002E-15  0.3742002E-15  0.3742002E-15  0.3367003E-02
    1      -14.125457   1.000000
    2      -12.851689   1.000000
    3      -12.576804   1.000000
    4      -12.089793   1.000000
    5      -11.671944   1.000000
    6      -11.390559   1.000000
    7      -11.273916   1.000000
    8      -11.037061   1.000000
    9      -10.919578   1.000000
   10      -10.896995   1.000000
   11      -10.755396   1.000000
   12      -10.506421   1.000000
   13      -10.323687   1.000000
   14      -10.317305   1.000000
   15       -9.847614   1.000000
   16       -9.473215   1.000000
   17       -9.237260   1.000000
   18       -9.050060   1.000000
   19       -8.802996   1.000000
   20       -8.583224   1.000000
   21       -8.457653   1.000000
   22       -8.368840   1.000000
   23       -8.199694   1.000000
   24       -8.129965   1.000000
   25       -7.766166   1.000000
   26       -7.701053   1.000000
   27       -7.463331   1.000000
   28       -7.285669   1.000000
   29       -6.785749   1.000000
   30       -6.498931   1.000000
   31       -6.405387   1.000000
   32       -6.301865   1.000000
   33       -6.169132   1.000000
   34       -6.086191   1.000000
   35       -5.999865   1.000000
   36       -5.835476   1.000000
   37       -5.693128   1.000000
   38       -5.537186   1.000000
   39       -5.441603   1.000000
   40       -5.328515   1.000000
   41       -5.225521   1.000000
   42       -5.121662   1.000000
   43       -5.071688   1.000000
   44       -5.003925   1.000000
   45       -4.945254   1.000000
   46       -4.852544   1.000000
   47       -4.760427   1.000000
   48       -4.629169   1.000000
   49       -4.538305   1.000000
   50       -4.455850   1.000000
   51       -4.415101   1.000000
   52       -4.356881   1.000000
   53       -4.162139   1.000000
   54       -4.143098   1.000000
   55       -4.120335   1.000000
   56       -4.048691   1.000000
   57       -3.952604   1.000000
   58       -3.881360   1.000000
   59       -3.836404   1.000000
   60       -3.651174   1.000000
   61       -3.601828   1.000000
   62       -3.508560   1.000000
   63       -3.451253   1.000000
   64       -3.394720   1.000000
   65       -3.192204   1.000000
   66       -3.166557   1.000000
   67       -3.014581   1.000000
   68       -2.916551   1.000000
   69       -2.836280   1.000000
   70       -2.740155   1.000000
   71       -2.683270   1.000000
   72       -2.558767   1.000000
   73       -2.474889   1.000000
   74       -2.389304   1.000000
   75       -2.013421   1.000000
   76       -1.834753   1.000000
   77       -1.786340   1.000000
   78       -1.706709   1.000000
   79       -1.596164   1.000000
   80       -1.493129   1.000000
   81       -1.326291   1.000000
   82       -1.300960   1.000000
   83       -1.115482   1.000008
   84       -1.010303   1.000176
   85       -0.751105   1.023630
   86       -0.669312   1.035113
   87       -0.515292   0.815954
   88       -0.413668   0.416366
   89       -0.199666  -0.034949
   90       -0.123220  -0.025304
   91       -0.111612  -0.022620
   92       -0.028170  -0.007323
   93        0.057170  -0.001421
   94        0.174326  -0.000075
   95        0.257837  -0.000006
   96        0.307809  -0.000001
   97        0.323255  -0.000001
   98        0.429179  -0.000000
   99        0.449651  -0.000000
  100        0.564310  -0.000000
  101        0.623370  -0.000000
  102        0.793190  -0.000000
  103        0.816456  -0.000000
  104        0.962677  -0.000000
  105        0.975069  -0.000000
  106        1.022532  -0.000000
  107        1.053445  -0.000000
  108        1.079029  -0.000000
  109        1.174248  -0.000000
  110        1.281531  -0.000000
  111        1.394848  -0.000000
  112        1.429345  -0.000000
  113        1.584060  -0.000000
  114        1.735927  -0.000000

  0.1111111E+00  0.3729374E-15  0.3860503E-15  0.6734007E-02
    1      -14.102119   1.000000
    2      -12.856878   1.000000
    3      -12.663312   1.000000
    4      -12.023017   1.000000
    5      -11.655737   1.000000
    6      -11.386828   1.000000
    7      -11.317121   1.000000
    8      -11.046917   1.000000
    9      -10.918100   1.000000
   10      -10.889263   1.000000
   11      -10.746081   1.000000
   12      -10.505331   1.000000
   13      -10.306711   1.000000
   14      -10.285239   1.000000
   15       -9.837818   1.000000
   16       -9.488665   1.000000
   17       -9.236063   1.000000
   18       -9.053524   1.000000
   19       -8.801993   1.000000
   20       -8.627946   1.000000
   21       -8.505669   1.000000
   22       -8.379106   1.000000
   23       -8.217487   1.000000
   24       -8.065025   1.000000
   25       -7.762613   1.000000
   26       -7.716927   1.000000
   27       -7.542408   1.000000
   28       -7.313257   1.000000
   29       -6.730760   1.000000
   30       -6.459470   1.000000
   31       -6.366493   1.000000
   32       -6.279006   1.000000
   33       -6.164803   1.000000
   34       -6.071874   1.000000
   35       -5.968691   1.000000
   36       -5.836545   1.000000
   37       -5.711135   1.000000
   38       -5.530048   1.000000
   39       -5.441829   1.000000
   40       -5.345267   1.000000
   41       -5.191205   1.000000
   42       -5.143988   1.000000
   43       -5.065856   1.000000
   44       -4.971778   1.000000
   45       -4.926060   1.000000
   46       -4.841996   1.000000
   47       -4.756813   1.000000
   48       -4.644191   1.000000
   49       -4.518915   1.000000
   50       -4.480181   1.000000
   51       -4.395421   1.000000
   52       -4.336800   1.000000
   53       -4.166837   1.000000
   54       -4.148117   1.000000
   55       -4.109488   1.000000
   56       -4.065305   1.000000
   57       -3.943935   1.000000
   58       -3.898317   1.000000
   59       -3.824850   1.000000
   60       -3.704467   1.000000
   61       -3.599120   1.000000
   62       -3.511896   1.000000
   63       -3.499427   1.000000
   64       -3.411718   1.000000
   65       -3.168660   1.000000
   66       -3.139643   1.000000
   67       -3.000565   1.000000
   68       -2.921220   1.000000
   69       -2.843854   1.000000
   70       -2.774288   1.000000
   71       -2.704746   1.000000
   72       -2.535073   1.000000
   73       -2.465356   1.000000
   74       -2.382615   1.000000
   75       -2.083552   1.000000
   76       -1.841478   1.000000
   77       -1.777402   1.000000
   78       -1.706492   1.000000
   79       -1.550635   1.000000
   80       -1.463058   1.000000
   81       -1.354007   1.000000
   82       -1.276504   1.000000
   83       -1.145644   1.000003
   84       -1.015443   1.000154
   85       -0.743321   1.025429
   86       -0.650957   1.031964
   87       -0.531210   0.863626
   88       -0.397649   0.350804
   89       -0.215067  -0.032248
   90       -0.128707  -0.026562
   91       -0.088726  -0.017510
   92       -0.006881  -0.005076
   93        0.078602  -0.000879
   94        0.151739  -0.000140
   95        0.258245  -0.000006
   96        0.294365  -0.000002
   97        0.323585  -0.000001
   98        0.424113  -0.000000
   99        0.458079  -0.000000
  100        0.604365  -0.000000
  101        0.631722  -0.000000
  102        0.801934  -0.000000
  103        0.829536  -0.000000
  104        0.945958  -0.000000
  105        1.021720  -0.000000
  106        1.046811  -0.000000
  107        1.056209  -0.000000
  108        1.091723  -0.000000
  109        1.183849  -0.000000
  110        1.261099  -0.000000
  111        1.379125  -0.000000
  112        1.406908  -0.000000
  113        1.577652  -0.000000
  114        1.790154  -0.000000

  0.2222222E+00  0.3922785E-15  0.3630220E-15  0.6734007E-02
    1      -14.034324   1.000000
    2      -12.976649   1.000000
    3      -12.708385   1.000000
    4      -11.945396   1.000000
    5      -11.621051   1.000000
    6      -11.400416   1.000000
    7      -11.367572   1.000000
    8      -11.068923   1.000000
    9      -10.918532   1.000000
   10      -10.870174   1.000000
   11      -10.721401   1.000000
   12      -10.505493   1.000000
   13      -10.282233   1.000000
   14      -10.191493   1.000000
   15       -9.811275   1.000000
   16       -9.532069   1.000000
   17       -9.223352   1.000000
   18       -9.057885   1.000000
   19       -8.794321   1.000000
   20       -8.744813   1.000000
   21       -8.642819   1.000000
   22       -8.390305   1.000000
   23       -8.230435   1.000000
   24       -7.943192   1.000000
   25       -7.789147   1.000000
   26       -7.744898   1.000000
   27       -7.660408   1.000000
   28       -7.351786   1.000000
   29       -6.664223   1.000000
   30       -6.405041   1.000000
   31       -6.311514   1.000000
   32       -6.222933   1.000000
   33       -6.141151   1.000000
   34       -6.051234   1.000000
   35       -5.889419   1.000000
   36       -5.843978   1.000000
   37       -5.718808   1.000000
   38       -5.498764   1.000000
   39       -5.410336   1.000000
   40       -5.290307   1.000000
   41       -5.178053   1.000000
   42       -5.142037   1.000000
   43       -5.077631   1.000000
   44       -4.981868   1.000000
   45       -4.875777   1.000000
   46       -4.785217   1.000000
   47       -4.740511   1.000000
   48       -4.654170   1.000000
   49       -4.543539   1.000000
   50       -4.464317   1.000000
   51       -4.356804   1.000000
   52       -4.304430   1.000000
   53       -4.210789   1.000000
   54       -4.158331   1.000000
   55       -4.099318   1.000000
   56       -4.059755   1.000000
   57       -3.934560   1.000000
   58       -3.918298   1.000000
   59       -3.798915   1.000000
   60       -3.777016   1.000000
   61       -3.657690   1.000000
   62       -3.584058   1.000000
   63       -3.512796   1.000000
   64       -3.431521   1.000000
   65       -3.163150   1.000000
   66       -3.086760   1.000000
   67       -3.005359   1.000000
   68       -2.982803   1.000000
   69       -2.880633   1.000000
   70       -2.806641   1.000000
   71       -2.700924   1.000000
   72       -2.491733   1.000000
   73       -2.436957   1.000000
   74       -2.373046   1.000000
   75       -2.205891   1.000000
   76       -1.876167   1.000000
   77       -1.760381   1.000000
   78       -1.700349   1.000000
   79       -1.568720   1.000000
   80       -1.405523   1.000000
   81       -1.289967   1.000000
   82       -1.226411   1.000000
   83       -1.201047   1.000000
   84       -1.026743   1.000113
   85       -0.760592   1.021444
   86       -0.595685   0.992739
   87       -0.565798   0.945622
   88       -0.361850   0.217174
   89       -0.173801  -0.034697
   90       -0.161451  -0.033115
   91       -0.034674  -0.008142
   92       -0.009192  -0.005290
   93        0.092650  -0.000632
   94        0.112687  -0.000388
   95        0.205020  -0.000031
   96        0.340379  -0.000000
   97        0.351525  -0.000000
   98        0.461096  -0.000000
   99        0.468502  -0.000000
  100        0.599733  -0.000000
  101        0.675327  -0.000000
  102        0.853739  -0.000000
  103        0.873564  -0.000000
  104        0.939889  -0.000000
  105        1.039861  -0.000000
  106        1.079486  -0.000000
  107        1.116240  -0.000000
  108        1.143147  -0.000000
  109        1.210451  -0.000000
  110        1.257056  -0.000000
  111        1.362800  -0.000000
  112        1.441771  -0.000000
  113        1.493227  -0.000000
  114        1.666926  -0.000000

  0.3333333E+00  0.3713828E-15  0.3468587E-15  0.6734007E-02
    1      -13.931531   1.000000
    2      -13.186326   1.000000
    3      -12.647810   1.000000
    4      -11.959390   1.000000
    5      -11.593288   1.000000
    6      -11.418698   1.000000
    7      -11.356785   1.000000
    8      -11.090253   1.000000
    9      -10.921674   1.000000
   10      -10.848956   1.000000
   11      -10.691946   1.000000
   12      -10.519244   1.000000
   13      -10.257704   1.000000
   14      -10.063244   1.000000
   15       -9.776156   1.000000
   16       -9.593901   1.000000
   17       -9.196211   1.000000
   18       -9.066540   1.000000
   19       -8.914949   1.000000
   20       -8.824116   1.000000
   21       -8.697407   1.000000
   22       -8.400311   1.000000
   23       -8.244283   1.000000
   24       -8.034082   1.000000
   25       -7.772268   1.000000
   26       -7.746649   1.000000
   27       -7.605281   1.000000
   28       -7.350899   1.000000
   29       -6.674723   1.000000
   30       -6.509623   1.000000
   31       -6.344160   1.000000
   32       -6.122120   1.000000
   33       -6.069098   1.000000
   34       -6.008755   1.000000
   35       -5.824358   1.000000
   36       -5.776744   1.000000
   37       -5.599639   1.000000
   38       -5.455193   1.000000
   39       -5.369117   1.000000
   40       -5.309710   1.000000
   41       -5.189728   1.000000
   42       -5.141497   1.000000
   43       -5.048097   1.000000
   44       -4.962830   1.000000
   45       -4.849260   1.000000
   46       -4.728028   1.000000
   47       -4.701619   1.000000
   48       -4.645216   1.000000
   49       -4.532212   1.000000
   50       -4.459039   1.000000
   51       -4.362244   1.000000
   52       -4.307305   1.000000
   53       -4.252392   1.000000
   54       -4.179048   1.000000
   55       -4.085332   1.000000
   56       -4.020158   1.000000
   57       -3.968763   1.000000
   58       -3.880857   1.000000
   59       -3.803001   1.000000
   60       -3.787194   1.000000
   61       -3.761794   1.000000
   62       -3.596083   1.000000
   63       -3.517763   1.000000
   64       -3.416318   1.000000
   65       -3.236221   1.000000
   66       -3.160803   1.000000
   67       -3.118829   1.000000
   68       -2.989871   1.000000
   69       -2.888366   1.000000
   70       -2.775065   1.000000
   71       -2.686586   1.000000
   72       -2.554096   1.000000
   73       -2.381402   1.000000
   74       -2.335880   1.000000
   75       -2.201504   1.000000
   76       -1.939943   1.000000
   77       -1.779393   1.000000
   78       -1.688230   1.000000
   79       -1.577644   1.000000
   80       -1.467061   1.000000
   81       -1.351477   1.000000
   82       -1.218919   1.000000
   83       -1.008194   1.000186
   84       -0.960323   1.000624
   85       -0.751742   1.023482
   86       -0.597018   0.994362
   87       -0.549395   0.910494
   88       -0.332139   0.126074
   89       -0.234123  -0.024823
   90       -0.166152  -0.033800
   91       -0.112297  -0.022778
   92        0.041232  -0.001997
   93        0.090123  -0.000672
   94        0.174359  -0.000075
   95        0.196735  -0.000039
   96        0.314638  -0.000001
   97        0.382513  -0.000000
   98        0.518624  -0.000000
   99        0.574947  -0.000000
  100        0.627350  -0.000000
  101        0.671613  -0.000000
  102        0.894264  -0.000000
  103        0.916961  -0.000000
  104        0.955261  -0.000000
  105        1.021965  -0.000000
  106        1.122435  -0.000000
  107        1.148796  -0.000000
  108        1.221096  -0.000000
  109        1.256594  -0.000000
  110        1.340825  -0.000000
  111        1.366470  -0.000000
  112        1.434553  -0.000000
  113        1.476398  -0.000000
  114        1.637271  -0.000000

  0.4444444E+00  0.3870091E-15  0.3932070E-15  0.6734007E-02
    1      -13.828766   1.000000
    2      -13.352226   1.000000
    3      -12.584868   1.000000
    4      -12.021189   1.000000
    5      -11.569238   1.000000
    6      -11.410074   1.000000
    7      -11.347952   1.000000
    8      -11.102606   1.000000
    9      -10.924162   1.000000
   10      -10.835321   1.000000
   11      -10.671117   1.000000
   12      -10.539001   1.000000
   13      -10.236750   1.000000
   14       -9.948703   1.000000
   15       -9.748020   1.000000
   16       -9.655017   1.000000
   17       -9.162546   1.000000
   18       -9.109450   1.000000
   19       -8.980528   1.000000
   20       -8.953737   1.000000
   21       -8.608616   1.000000
   22       -8.400337   1.000000
   23       -8.305844   1.000000
   24       -8.147177   1.000000
   25       -7.784515   1.000000
   26       -7.728565   1.000000
   27       -7.473161   1.000000
   28       -7.293049   1.000000
   29       -6.772740   1.000000
   30       -6.661882   1.000000
   31       -6.340426   1.000000
   32       -6.086128   1.000000
   33       -6.039513   1.000000
   34       -5.910425   1.000000
   35       -5.730846   1.000000
   36       -5.665929   1.000000
   37       -5.565926   1.000000
   38       -5.487228   1.000000
   39       -5.361261   1.000000
   40       -5.301325   1.000000
   41       -5.190014   1.000000
   42       -5.155442   1.000000
   43       -5.049649   1.000000
   44       -4.874702   1.000000
   45       -4.853881   1.000000
   46       -4.739755   1.000000
   47       -4.630096   1.000000
   48       -4.580697   1.000000
   49       -4.519960   1.000000
   50       -4.476885   1.000000
   51       -4.434321   1.000000
   52       -4.337661   1.000000
   53       -4.259512   1.000000
   54       -4.187990   1.000000
   55       -4.040439   1.000000
   56       -4.017108   1.000000
   57       -3.982153   1.000000
   58       -3.870401   1.000000
   59       -3.825596   1.000000
   60       -3.772671   1.000000
   61       -3.739921   1.000000
   62       -3.599722   1.000000
   63       -3.500919   1.000000
   64       -3.409232   1.000000
   65       -3.380348   1.000000
   66       -3.224780   1.000000
   67       -3.206234   1.000000
   68       -2.985716   1.000000
   69       -2.879474   1.000000
   70       -2.755730   1.000000
   71       -2.707306   1.000000
   72       -2.621782   1.000000
   73       -2.326076   1.000000
   74       -2.264575   1.000000
   75       -2.162338   1.000000
   76       -1.985408   1.000000
   77       -1.811239   1.000000
   78       -1.689974   1.000000
   79       -1.567453   1.000000
   80       -1.533517   1.000000
   81       -1.426727   1.000000
   82       -1.201311   1.000000
   83       -0.922081   1.001490
   84       -0.848264   1.006257
   85       -0.708722   1.032616
   86       -0.553729   0.920435
   87       -0.509563   0.797359
   88       -0.360102   0.211258
   89       -0.303988   0.059700
   90       -0.195469  -0.035267
   91       -0.123975  -0.025478
   92       -0.002140  -0.004660
   93        0.023187  -0.002881
   94        0.147201  -0.000158
   95        0.222566  -0.000018
   96        0.390836  -0.000000
   97        0.423649  -0.000000
   98        0.568059  -0.000000
   99        0.627412  -0.000000
  100        0.696393  -0.000000
  101        0.769145  -0.000000
  102        0.843522  -0.000000
  103        0.940825  -0.000000
  104        0.983453  -0.000000
  105        1.061118  -0.000000
  106        1.115010  -0.000000
  107        1.177647  -0.000000
  108        1.227145  -0.000000
  109        1.289026  -0.000000
  110        1.343505  -0.000000
  111        1.363423  -0.000000
  112        1.457843  -0.000000
  113        1.554744  -0.000000
  114        1.573024  -0.000000

  0.3742002E-15  0.9090909E-01  0.3596334E-15  0.6734007E-02
    1      -14.093162   1.000000
    2      -12.828989   1.000000
    3      -12.577289   1.000000
    4      -12.057837   1.000000
    5      -11.650338   1.000000
    6      -11.545685   1.000000
    7      -11.311005   1.000000
    8      -11.251256   1.000000
    9      -11.011703   1.000000
   10      -10.740587   1.000000
   11      -10.618177   1.000000
   12      -10.485328   1.000000
   13      -10.411021   1.000000
   14      -10.201935   1.000000
   15       -9.794307   1.000000
   16       -9.587877   1.000000
   17       -9.208537   1.000000
   18       -8.992951   1.000000
   19       -8.833932   1.000000
   20       -8.619549   1.000000
   21       -8.447649   1.000000
   22       -8.225133   1.000000
   23       -8.212755   1.000000
   24       -8.036368   1.000000
   25       -7.792041   1.000000
   26       -7.538120   1.000000
   27       -7.444013   1.000000
   28       -7.240342   1.000000
   29       -6.778865   1.000000
   30       -6.523846   1.000000
   31       -6.416639   1.000000
   32       -6.307388   1.000000
   33       -6.204090   1.000000
   34       -6.059053   1.000000
   35       -5.973181   1.000000
   36       -5.787742   1.000000
   37       -5.690073   1.000000
   38       -5.576386   1.000000
   39       -5.447878   1.000000
   40       -5.337905   1.000000
   41       -5.269948   1.000000
   42       -5.171575   1.000000
   43       -5.080802   1.000000
   44       -5.037106   1.000000
   45       -4.978877   1.000000
   46       -4.858605   1.000000
   47       -4.812285   1.000000
   48       -4.631038   1.000000
   49       -4.574680   1.000000
   50       -4.509084   1.000000
   51       -4.434820   1.000000
   52       -4.389335   1.000000
   53       -4.277908   1.000000
   54       -4.184143   1.000000
   55       -4.106386   1.000000
   56       -4.013605   1.000000
   57       -3.933822   1.000000
   58       -3.850700   1.000000
   59       -3.757857   1.000000
   60       -3.693233   1.000000
   61       -3.613785   1.000000
   62       -3.499763   1.000000
   63       -3.448278   1.000000
   64       -3.383783   1.000000
   65       -3.215294   1.000000
   66       -3.160184   1.000000
   67       -3.013166   1.000000
   68       -2.956640   1.000000
   69       -2.843415   1.000000
   70       -2.764391   1.000000
   71       -2.638699   1.000000
   72       -2.583861   1.000000
   73       -2.450338   1.000000
   74       -2.346371   1.000000
   75       -2.065044   1.000000
   76       -1.861676   1.000000
   77       -1.787928   1.000000
   78       -1.717708   1.000000
   79       -1.634695   1.000000
   80       -1.493628   1.000000
   81       -1.326569   1.000000
   82       -1.270113   1.000000
   83       -1.119230   1.000007
   84       -1.002602   1.000216
   85       -0.852762   1.005789
   86       -0.675534   1.035424
   87       -0.587139   0.981398
   88       -0.423909   0.459291
   89       -0.318872   0.092304
   90       -0.202228  -0.034673
   91       -0.126974  -0.026166
   92       -0.028899  -0.007412
   93        0.052593  -0.001570
   94        0.128305  -0.000261
   95        0.293753  -0.000002
   96        0.347531  -0.000000
   97        0.406287  -0.000000
   98        0.459552  -0.000000
   99        0.518427  -0.000000
  100        0.581534  -0.000000
  101        0.626662  -0.000000
  102        0.787113  -0.000000
  103        0.831624  -0.000000
  104        0.939798  -0.000000
  105        1.007520  -0.000000
  106        1.040276  -0.000000
  107        1.071917  -0.000000
  108        1.094199  -0.000000
  109        1.191737  -0.000000
  110        1.281449  -0.000000
  111        1.383790  -0.000000
  112        1.406814  -0.000000
  113        1.535897  -0.000000
  114        1.664349  -0.000000

  0.1111111E+00  0.9090909E-01  0.4822234E-15  0.6734007E-02
    1      -14.051291   1.000000
    2      -12.861865   1.000000
    3      -12.681429   1.000000
    4      -11.967250   1.000000
    5      -11.626022   1.000000
    6      -11.554693   1.000000
    7      -11.361211   1.000000
    8      -11.264812   1.000000
    9      -10.982336   1.000000
   10      -10.738395   1.000000
   11      -10.603538   1.000000
   12      -10.490876   1.000000
   13      -10.369280   1.000000
   14      -10.190218   1.000000
   15       -9.766830   1.000000
   16       -9.603373   1.000000
   17       -9.219415   1.000000
   18       -8.981786   1.000000
   19       -8.850466   1.000000
   20       -8.665583   1.000000
   21       -8.501067   1.000000
   22       -8.313472   1.000000
   23       -8.185449   1.000000
   24       -7.963559   1.000000
   25       -7.809668   1.000000
   26       -7.622176   1.000000
   27       -7.482315   1.000000
   28       -7.261550   1.000000
   29       -6.722665   1.000000
   30       -6.492180   1.000000
   31       -6.367628   1.000000
   32       -6.243742   1.000000
   33       -6.176971   1.000000
   34       -6.061770   1.000000
   35       -5.929079   1.000000
   36       -5.781403   1.000000
   37       -5.721134   1.000000
   38       -5.546235   1.000000
   39       -5.429428   1.000000
   40       -5.346104   1.000000
   41       -5.241533   1.000000
   42       -5.162551   1.000000
   43       -5.112720   1.000000
   44       -4.997824   1.000000
   45       -4.928071   1.000000
   46       -4.868298   1.000000
   47       -4.785949   1.000000
   48       -4.614755   1.000000
   49       -4.546454   1.000000
   50       -4.503931   1.000000
   51       -4.474411   1.000000
   52       -4.362283   1.000000
   53       -4.250747   1.000000
   54       -4.194790   1.000000
   55       -4.115648   1.000000
   56       -4.006946   1.000000
   57       -3.953484   1.000000
   58       -3.856557   1.000000
   59       -3.769686   1.000000
   60       -3.733353   1.000000
   61       -3.663133   1.000000
   62       -3.557895   1.000000
   63       -3.469722   1.000000
   64       -3.391005   1.000000
   65       -3.195895   1.000000
   66       -3.092474   1.000000
   67       -3.004180   1.000000
   68       -2.949073   1.000000
   69       -2.882363   1.000000
   70       -2.817521   1.000000
   71       -2.677334   1.000000
   72       -2.570239   1.000000
   73       -2.431209   1.000000
   74       -2.331124   1.000000
   75       -2.189108   1.000000
   76       -1.828302   1.000000
   77       -1.790551   1.000000
   78       -1.746109   1.000000
   79       -1.574680   1.000000
   80       -1.432561   1.000000
   81       -1.328514   1.000000
   82       -1.258270   1.000000
   83       -1.137958   1.000004
   84       -1.022707   1.000126
   85       -0.838144   1.007417
   86       -0.639152   1.027799
   87       -0.597087   0.994445
   88       -0.420519   0.445026
   89       -0.275888   0.013014
   90       -0.195153  -0.035285
   91       -0.141165  -0.029313
   92       -0.031904  -0.007785
   93        0.074083  -0.000975
   94        0.128058  -0.000262
   95        0.264811  -0.000005
   96        0.344660  -0.000000
   97        0.403277  -0.000000
   98        0.475700  -0.000000
   99        0.543083  -0.000000
  100        0.595497  -0.000000
  101        0.672675  -0.000000
  102        0.782359  -0.000000
  103        0.873286  -0.000000
  104        0.966433  -0.000000
  105        1.016490  -0.000000
  106        1.042613  -0.000000
  107        1.095498  -0.000000
  108        1.129758  -0.000000
  109        1.205682  -0.000000
  110        1.242282  -0.000000
  111        1.358596  -0.000000
  112        1.435362  -0.000000
  113        1.482926  -0.000000
  114        1.738000  -0.000000

  0.2222222E+00  0.9090909E-01  0.3065600E-15  0.6734007E-02
    1      -13.967716   1.000000
    2      -13.039439   1.000000
    3      -12.665897   1.000000
    4      -11.922819   1.000000
    5      -11.609873   1.000000
    6      -11.557300   1.000000
    7      -11.399158   1.000000
    8      -11.283248   1.000000
    9      -10.922677   1.000000
   10      -10.729999   1.000000
   11      -10.591539   1.000000
   12      -10.503463   1.000000
   13      -10.315604   1.000000
   14      -10.162898   1.000000
   15       -9.720589   1.000000
   16       -9.612510   1.000000
   17       -9.262062   1.000000
   18       -8.959214   1.000000
   19       -8.908646   1.000000
   20       -8.695975   1.000000
   21       -8.562451   1.000000
   22       -8.436318   1.000000
   23       -8.182088   1.000000
   24       -7.960407   1.000000
   25       -7.802726   1.000000
   26       -7.678627   1.000000
   27       -7.463155   1.000000
   28       -7.294094   1.000000
   29       -6.697392   1.000000
   30       -6.480664   1.000000
   31       -6.345109   1.000000
   32       -6.221923   1.000000
   33       -6.088638   1.000000
   34       -6.056061   1.000000
   35       -5.852783   1.000000
   36       -5.804307   1.000000
   37       -5.628889   1.000000
   38       -5.511149   1.000000
   39       -5.415789   1.000000
   40       -5.315935   1.000000
   41       -5.225695   1.000000
   42       -5.165465   1.000000
   43       -5.091854   1.000000
   44       -4.963789   1.000000
   45       -4.906395   1.000000
   46       -4.823642   1.000000
   47       -4.740323   1.000000
   48       -4.616393   1.000000
   49       -4.542086   1.000000
   50       -4.524764   1.000000
   51       -4.449924   1.000000
   52       -4.335471   1.000000
   53       -4.234881   1.000000
   54       -4.180416   1.000000
   55       -4.112331   1.000000
   56       -4.026024   1.000000
   57       -3.963193   1.000000
   58       -3.856328   1.000000
   59       -3.812458   1.000000
   60       -3.770596   1.000000
   61       -3.714732   1.000000
   62       -3.612532   1.000000
   63       -3.515393   1.000000
   64       -3.378810   1.000000
   65       -3.227022   1.000000
   66       -3.090247   1.000000
   67       -3.057962   1.000000
   68       -2.960264   1.000000
   69       -2.897643   1.000000
   70       -2.844115   1.000000
   71       -2.707040   1.000000
   72       -2.519259   1.000000
   73       -2.414644   1.000000
   74       -2.360572   1.000000
   75       -2.240360   1.000000
   76       -1.871606   1.000000
   77       -1.836593   1.000000
   78       -1.723335   1.000000
   79       -1.559336   1.000000
   80       -1.377982   1.000000
   81       -1.310540   1.000000
   82       -1.221293   1.000000
   83       -1.125693   1.000006
   84       -1.006438   1.000195
   85       -0.830723   1.008365
   86       -0.670786   1.035217
   87       -0.544567   0.898860
   88       -0.410795   0.404439
   89       -0.263039  -0.002289
   90       -0.150378  -0.031179