   75   75    1    1
  0.2082215E+02  0.1053953E-08  0.6141200E-09  0.2412750E-08  0.5000000E-15
   1.0000000000000000E-004
  CAR 
 Name                                    
    285     23    184

  0.3742002E-15  0.3742002E-15  0.1262379E-14  0.2222222E-01
    1      -13.790073   1.000000
    2      -12.685537   1.000000
    3      -12.602102   1.000000
    4      -12.584257   1.000000
    5      -11.643026   1.000000
    6      -11.619061   1.000000
    7      -11.442962   1.000000
    8      -11.394264   1.000000
    9      -11.228109   1.000000
   10      -11.162744   1.000000
   11      -11.078609   1.000000
   12      -10.900684   1.000000
   13      -10.844240   1.000000
   14      -10.602514   1.000000
   15      -10.528795   1.000000
   16      -10.454966   1.000000
   17      -10.232464   1.000000
   18       -9.991666   1.000000
   19       -9.954986   1.000000
   20       -9.835007   1.000000
   21       -9.581924   1.000000
   22       -9.498567   1.000000
   23       -9.467659   1.000000
   24       -9.376035   1.000000
   25       -8.988857   1.000000
   26       -8.788188   1.000000
   27       -8.698391   1.000000
   28       -8.441774   1.000000
   29       -8.315162   1.000000
   30       -8.174362   1.000000
   31       -7.959295   1.000000
   32       -7.678577   1.000000
   33       -7.667366   1.000000
   34       -7.589661   1.000000
   35       -7.505910   1.000000
   36       -7.055636   1.000000
   37       -7.020497   1.000000
   38       -6.896497   1.000000
   39       -6.748841   1.000000
   40       -6.562242   1.000000
   41       -6.543351   1.000000
   42       -6.475905   1.000000
   43       -6.437792   1.000000
   44       -6.414496   1.000000
   45       -6.346384   1.000000
   46       -6.260091   1.000000
   47       -6.237780   1.000000
   48       -6.037700   1.000000
   49       -5.982046   1.000000
   50       -5.974964   1.000000
   51       -5.905638   1.000000
   52       -5.841485   1.000000
   53       -5.599607   1.000000
   54       -5.539967   1.000000
   55       -5.521762   1.000000
   56       -5.434124   1.000000
   57       -5.394221   1.000000
   58       -5.269601   1.000000
   59       -5.177243   1.000000
   60       -5.156115   1.000000
   61       -5.125094   1.000000
   62       -5.102402   1.000000
   63       -5.013629   1.000000
   64       -4.768331   1.000000
   65       -4.659820   1.000000
   66       -4.524765   1.000000
   67       -4.435089   1.000000
   68       -4.426983   1.000000
   69       -4.409537   1.000000
   70       -4.280275   1.000000
   71       -4.180890   1.000000
   72       -4.138238   1.000000
   73       -4.003477   1.000000
   74       -4.001317   1.000000
   75       -3.994247   1.000000
   76       -3.987863   1.000000
   77       -3.940568   1.000000
   78       -3.892020   1.000000
   79       -3.831288   1.000000
   80       -3.749866   1.000000
   81       -3.728200   1.000000
   82       -3.724810   1.000000
   83       -3.664373   1.000000
   84       -3.637752   1.000000
   85       -3.601685   1.000000
   86       -3.490979   1.000000
   87       -3.473373   1.000000
   88       -3.423489   1.000000
   89       -3.371115   1.000000
   90       -3.335557   1.000000
   91       -3.324306   1.000000
   92       -3.134061   1.000000
   93       -3.132785   1.000000
   94       -2.973410   1.000000
   95       -2.926742   1.000000
   96       -2.913949   1.000000
   97       -2.767829   1.000000
   98       -2.747537   1.000000
   99       -2.622226   1.000000
  100       -2.572562   1.000000
  101       -2.453887   1.000000
  102       -2.377341   1.000000
  103       -2.353880   1.000000
  104       -2.199507   1.000000
  105       -2.170676   1.000000
  106       -2.161692   1.000000
  107       -2.109778   1.000000
  108       -2.033630   1.000000
  109       -1.984386   1.000000
  110       -1.921667   1.000000
  111       -1.848553   1.000000
  112       -1.767685   1.000000
  113       -1.723352   1.000000
  114       -1.660890   1.000000
  115       -1.654506   1.000000
  116       -1.600497   1.000000
  117       -1.542802   1.000000
  118       -1.500174   1.000000
  119       -1.481306   1.000000
  120       -1.479086   1.000000
  121       -1.297628   1.000000
  122       -0.980024   1.000000
  123       -0.818415   1.000000
  124       -0.808869   1.000000
  125       -0.804202   1.000000
  126       -0.729883   1.000000
  127       -0.535173   1.000000
  128       -0.342202   1.000000
  129       -0.307142   1.000000
  130       -0.201640   1.000000
  131       -0.032592   1.000000
  132       -0.001562   1.000000
  133        0.029584   1.000000
  134        0.151325   1.000000
  135        0.205875   1.000000
  136        0.417892   1.000460
  137        0.419318   1.000493
  138        0.513099   1.016641
  139        0.525790   1.022241
  140        0.550405   1.032755
  141        0.564966   1.035458
  142        0.638772   0.863466
  143        0.682030   0.546868
  144        0.768518   0.007585
  145        0.789995  -0.027457
  146        0.803059  -0.034631
  147        0.869614  -0.013661
  148        0.870340  -0.013392
  149        1.008953  -0.000027
  150        1.048311  -0.000002
  151        1.234714  -0.000000
  152        1.263343  -0.000000
  153        1.306267  -0.000000
  154        1.373359  -0.000000
  155        1.409188  -0.000000
  156        1.471679  -0.000000
  157        1.503364  -0.000000
  158        1.526251  -0.000000
  159        1.547346  -0.000000
  160        1.606951  -0.000000
  161        1.614770  -0.000000
  162        1.652010  -0.000000
  163        1.683193  -0.000000
  164        1.705591  -0.000000
  165        1.798733  -0.000000
  166        1.835090  -0.000000
  167        1.904980  -0.000000
  168        1.938714  -0.000000
  169        1.960316  -0.000000
  170        1.974377  -0.000000
  171        2.000295  -0.000000
  172        2.022078  -0.000000
  173        2.063495  -0.000000
  174        2.154212  -0.000000
  175        2.236329  -0.000000
  176        2.347968  -0.000000
  177        2.359764  -0.000000
  178        2.412633  -0.000000
  179        2.529383  -0.000000
  180        2.741334  -0.000000
  181        2.810629  -0.000000
  182        2.967595  -0.000000
  183        3.163658  -0.000000
  184        3.260199  -0.000000

  0.2000000E+00  0.3742002E-15  0.1262379E-14  0.4444444E-01
    1      -13.741634   1.000000
    2      -13.037761   1.000000
    3      -12.567394   1.000000
    4      -12.156127   1.000000
    5      -11.915485   1.000000
    6      -11.610002   1.000000
    7      -11.449115   1.000000
    8      -11.179085   1.000000
    9      -11.153072   1.000000
   10      -11.099758   1.000000
   11      -11.052895   1.000000
   12      -10.939006   1.000000
   13      -10.774815   1.000000
   14      -10.634029   1.000000
   15      -10.568204   1.000000
   16      -10.531533   1.000000
   17      -10.423023   1.000000
   18      -10.235833   1.000000
   19       -9.979442   1.000000
   20       -9.883969   1.000000
   21       -9.513482   1.000000
   22       -9.372616   1.000000
   23       -9.356249   1.000000
   24       -9.241204   1.000000
   25       -9.095497   1.000000
   26       -8.959595   1.000000
   27       -8.489739   1.000000
   28       -8.348008   1.000000
   29       -8.186617   1.000000
   30       -8.145433   1.000000
   31       -7.974764   1.000000
   32       -7.894810   1.000000
   33       -7.566467   1.000000
   34       -7.516847   1.000000
   35       -7.440580   1.000000
   36       -7.245796   1.000000
   37       -7.061287   1.000000
   38       -6.965759   1.000000
   39       -6.926454   1.000000
   40       -6.648647   1.000000
   41       -6.599281   1.000000
   42       -6.547211   1.000000
   43       -6.499240   1.000000
   44       -6.416475   1.000000
   45       -6.394292   1.000000
   46       -6.202926   1.000000
   47       -6.009436   1.000000
   48       -5.994278   1.000000
   49       -5.963934   1.000000
   50       -5.887818   1.000000
   51       -5.816514   1.000000
   52       -5.741098   1.000000
   53       -5.668192   1.000000
   54       -5.574651   1.000000
   55       -5.430174   1.000000
   56       -5.366502   1.000000
   57       -5.327434   1.000000
   58       -5.271592   1.000000
   59       -5.179435   1.000000
   60       -5.162125   1.000000
   61       -5.137960   1.000000
   62       -5.088465   1.000000
   63       -5.005291   1.000000
   64       -4.927180   1.000000
   65       -4.588111   1.000000
   66       -4.558559   1.000000
   67       -4.472899   1.000000
   68       -4.454516   1.000000
   69       -4.412805   1.000000
   70       -4.334560   1.000000
   71       -4.149260   1.000000
   72       -4.128203   1.000000
   73       -4.072266   1.000000
   74       -4.000971   1.000000
   75       -3.970182   1.000000
   76       -3.950997   1.000000
   77       -3.897819   1.000000
   78       -3.851453   1.000000
   79       -3.819951   1.000000
   80       -3.766830   1.000000
   81       -3.758261   1.000000
   82       -3.724506   1.000000
   83       -3.717586   1.000000
   84       -3.628871   1.000000
   85       -3.576975   1.000000
   86       -3.471411   1.000000
   87       -3.450745   1.000000
   88       -3.400870   1.000000
   89       -3.369151   1.000000
   90       -3.327238   1.000000
   91       -3.309091   1.000000
   92       -3.207356   1.000000
   93       -3.124469   1.000000
   94       -3.043506   1.000000
   95       -2.974108   1.000000
   96       -2.900780   1.000000
   97       -2.827976   1.000000
   98       -2.769593   1.000000
   99       -2.681343   1.000000
  100       -2.568755   1.000000
  101       -2.511083   1.000000
  102       -2.484721   1.000000
  103       -2.217407   1.000000
  104       -2.165000   1.000000
  105       -2.129123   1.000000
  106       -2.072515   1.000000
  107       -2.058967   1.000000
  108       -2.016573   1.000000
  109       -1.981783   1.000000
  110       -1.854832   1.000000
  111       -1.835209   1.000000
  112       -1.793283   1.000000
  113       -1.730167   1.000000
  114       -1.672717   1.000000
  115       -1.600435   1.000000
  116       -1.525823   1.000000
  117       -1.518504   1.000000
  118       -1.501623   1.000000
  119       -1.412509   1.000000
  120       -1.336396   1.000000
  121       -1.273992   1.000000
  122       -1.003301   1.000000
  123       -0.942757   1.000000
  124       -0.886000   1.000000
  125       -0.840101   1.000000
  126       -0.717569   1.000000
  127       -0.607268   1.000000
  128       -0.354872   1.000000
  129       -0.346280   1.000000
  130       -0.312383   1.000000
  131       -0.244458   1.000000
  132       -0.075645   1.000000
  133        0.015535   1.000000
  134        0.072629   1.000000
  135        0.159320   1.000000
  136        0.268897   1.000000
  137        0.354353   1.000013
  138        0.518488   1.018946
  139        0.538773   1.028182
  140        0.580586   1.030944
  141        0.589705   1.022776
  142        0.715623   0.272688
  143        0.797751  -0.032719
  144        0.829836  -0.030917
  145        0.869257  -0.013794
  146        0.906489  -0.004141
  147        0.908204  -0.003883
  148        0.923495  -0.002122
  149        0.939209  -0.001076
  150        0.963126  -0.000343
  151        1.223697  -0.000000
  152        1.315730  -0.000000
  153        1.337216  -0.000000
  154        1.427532  -0.000000
  155        1.446202  -0.000000
  156        1.495047  -0.000000
  157        1.503419  -0.000000
  158        1.546471  -0.000000
  159        1.579563  -0.000000
  160        1.641915  -0.000000
  161        1.680569  -0.000000
  162        1.695467  -0.000000
  163        1.716710  -0.000000
  164        1.746972  -0.000000
  165        1.773911  -0.000000
  166        1.810184  -0.000000
  167        1.907250  -0.000000
  168        1.933681  -0.000000
  169        1.958537  -0.000000
  170        2.008895  -0.000000
  171        2.047963  -0.000000
  172        2.072459  -0.000000
  173        2.163014  -0.000000
  174        2.164194  -0.000000
  175        2.231909  -0.000000
  176        2.330219  -0.000000
  177        2.345392  -0.000000
  178        2.478457  -0.000000
  179        2.722869  -0.000000
  180        2.910984  -0.000000
  181        3.217213  -0.000000
  182        3.288154  -0.000000
  183        3.389236  -0.000000
  184        3.960089   0.000000

  0.4000000E+00  0.3742002E-15  0.1262379E-14  0.4444444E-01
    1      -13.597566   1.000000
    2      -13.360418   1.000000
    3      -12.439274   1.000000
    4      -12.212564   1.000000
    5      -11.616148   1.000000
    6      -11.577527   1.000000
    7      -11.522988   1.000000
    8      -11.125587   1.000000
    9      -11.076369   1.000000
   10      -11.062753   1.000000
   11      -10.960259   1.000000
   12      -10.920718   1.000000
   13      -10.869742   1.000000
   14      -10.763768   1.000000
   15      -10.680274   1.000000
   16      -10.573301   1.000000
   17      -10.483532   1.000000
   18      -10.280280   1.000000
   19      -10.159050   1.000000
   20       -9.914273   1.000000
   21       -9.662263   1.000000
   22       -9.330134   1.000000
   23       -9.311245   1.000000
   24       -9.126920   1.000000
   25       -9.052765   1.000000
   26       -8.809395   1.000000
   27       -8.321343   1.000000
   28       -8.273450   1.000000
   29       -8.156009   1.000000
   30       -8.023063   1.000000
   31       -7.979837   1.000000
   32       -7.705590   1.000000
   33       -7.687488   1.000000
   34       -7.541590   1.000000
   35       -7.526711   1.000000
   36       -7.392447   1.000000
   37       -7.228416   1.000000
   38       -7.195391   1.000000
   39       -6.998179   1.000000
   40       -6.878271   1.000000
   41       -6.708599   1.000000
   42       -6.429127   1.000000
   43       -6.357062   1.000000
   44       -6.345735   1.000000
   45       -6.272693   1.000000
   46       -6.245752   1.000000
   47       -6.132361   1.000000
   48       -5.971450   1.000000
   49       -5.901612   1.000000
   50       -5.794021   1.000000
   51       -5.774242   1.000000
   52       -5.659591   1.000000
   53       -5.645591   1.000000
   54       -5.527242   1.000000
   55       -5.447785   1.000000
   56       -5.436643   1.000000
   57       -5.335344   1.000000
   58       -5.285059   1.000000
   59       -5.136953   1.000000
   60       -5.099000   1.000000
   61       -5.064150   1.000000
   62       -4.944952   1.000000
   63       -4.871397   1.000000
   64       -4.766589   1.000000
   65       -4.658078   1.000000
   66       -4.644001   1.000000
   67       -4.602282   1.000000
   68       -4.515350   1.000000
   69       -4.442376   1.000000
   70       -4.416398   1.000000
   71       -4.233094   1.000000
   72       -4.208661   1.000000
   73       -4.102261   1.000000
   74       -4.046303   1.000000
   75       -3.988698   1.000000
   76       -3.932008   1.000000
   77       -3.901683   1.000000
   78       -3.832132   1.000000
   79       -3.742967   1.000000
   80       -3.726512   1.000000
   81       -3.684309   1.000000
   82       -3.662383   1.000000
   83       -3.654229   1.000000
   84       -3.608123   1.000000
   85       -3.595462   1.000000
   86       -3.491357   1.000000
   87       -3.475120   1.000000
   88       -3.436732   1.000000
   89       -3.353216   1.000000
   90       -3.268585   1.000000
   91       -3.236619   1.000000
   92       -3.212323   1.000000
   93       -3.180893   1.000000
   94       -3.152363   1.000000
   95       -3.065141   1.000000
   96       -2.959575   1.000000
   97       -2.908282   1.000000
   98       -2.827491   1.000000
   99       -2.723651   1.000000
  100       -2.696666   1.000000
  101       -2.570906   1.000000
  102       -2.309377   1.000000
  103       -2.246419   1.000000
  104       -2.168317   1.000000
  105       -2.107561   1.000000
  106       -2.079097   1.000000
  107       -2.007306   1.000000
  108       -1.875798   1.000000
  109       -1.853784   1.000000
  110       -1.842528   1.000000
  111       -1.823685   1.000000
  112       -1.720313   1.000000
  113       -1.638971   1.000000
  114       -1.588109   1.000000
  115       -1.582045   1.000000
  116       -1.562652   1.000000
  117       -1.398209   1.000000
  118       -1.329315   1.000000
  119       -1.286409   1.000000
  120       -1.197128   1.000000
  121       -1.154820   1.000000
  122       -1.086876   1.000000
  123       -1.068790   1.000000
  124       -0.999450   1.000000
  125       -0.939904   1.000000
  126       -0.754654   1.000000
  127       -0.680158   1.000000
  128       -0.658752   1.000000
  129       -0.626209   1.000000
  130       -0.430331   1.000000
  131       -0.345143   1.000000
  132       -0.295467   1.000000
  133        0.014872   1.000000
  134        0.060226   1.000000
  135        0.166876   1.000000
  136        0.198497   1.000000
  137        0.444874   1.001594
  138        0.474488   1.005120
  139        0.495078   1.010110
  140        0.504729   1.013361
  141        0.566811   1.035412
  142        0.690060   0.478993
  143        0.791383  -0.028639
  144        0.886514  -0.008273
  145        0.897324  -0.005762
  146        0.921786  -0.002277
  147        0.935314  -0.001280
  148        0.978243  -0.000156
  149        1.133501  -0.000000
  150        1.149366  -0.000000
  151        1.173442  -0.000000
  152        1.290561  -0.000000
  153        1.331113  -0.000000
  154        1.445120  -0.000000
  155        1.529702  -0.000000
  156        1.577650  -0.000000
  157        1.594927  -0.000000
  158        1.620582  -0.000000
  159        1.703845  -0.000000
  160        1.729545  -0.000000
  161        1.740691  -0.000000
  162        1.766128  -0.000000
  163        1.772646  -0.000000
  164        1.816959  -0.000000
  165        1.835564  -0.000000
  166        1.839805  -0.000000
  167        1.871169  -0.000000
  168        1.879600  -0.000000
  169        1.946644  -0.000000
  170        2.002577  -0.000000
  171        2.024581  -0.000000
  172        2.043429  -0.000000
  173        2.063947  -0.000000
  174        2.176719  -0.000000
  175        2.190470  -0.000000
  176        2.249116  -0.000000
  177        2.287902  -0.000000
  178        2.307539  -0.000000
  179        2.687646  -0.000000
  180        2.900181  -0.000000
  181        2.955734  -0.000000
  182        3.074695  -0.000000
  183        3.225801  -0.000000
  184        3.506980   0.000000

  0.3742002E-15  0.1111111E+00  0.1262379E-14  0.4444444E-01
    1      -13.743176   1.000000
    2      -12.645531   1.000000
    3      -12.562732   1.000000
    4      -12.551283   1.000000
    5      -11.725510   1.000000
    6      -11.608424   1.000000
    7      -11.433289   1.000000
    8      -11.418219   1.000000
    9      -11.266953   1.000000
   10      -11.157194   1.000000
   11      -11.110888   1.000000
   12      -10.905099   1.000000
   13      -10.854483   1.000000
   14      -10.621926   1.000000
   15      -10.509591   1.000000
   16      -10.454023   1.000000
   17      -10.229156   1.000000
   18       -9.972900   1.000000
   19       -9.924286   1.000000
   20       -9.827078   1.000000
   21       -9.555852   1.000000
   22       -9.501916   1.000000
   23       -9.480124   1.000000
   24       -9.396819   1.000000
   25       -8.988888   1.000000
   26       -8.772100   1.000000
   27       -8.721422   1.000000
   28       -8.469639   1.000000
   29       -8.300937   1.000000
   30       -8.156880   1.000000
   31       -7.829954   1.000000
   32       -7.720428   1.000000
   33       -7.692050   1.000000
   34       -7.573262   1.000000
   35       -7.535396   1.000000
   36       -7.146535   1.000000
   37       -7.114733   1.000000
   38       -6.868648   1.000000
   39       -6.727544   1.000000
   40       -6.530505   1.000000
   41       -6.499688   1.000000
   42       -6.467791   1.000000
   43       -6.440384   1.000000
   44       -6.422186   1.000000
   45       -6.349795   1.000000
   46       -6.247566   1.000000
   47       -6.224314   1.000000
   48       -6.042964   1.000000
   49       -5.986856   1.000000
   50       -5.960155   1.000000
   51       -5.896236   1.000000
   52       -5.823166   1.000000
   53       -5.629684   1.000000
   54       -5.547191   1.000000
   55       -5.466397   1.000000
   56       -5.405438   1.000000
   57       -5.345048   1.000000
   58       -5.287086   1.000000
   59       -5.205975   1.000000
   60       -5.090065   1.000000
   61       -5.065983   1.000000
   62       -5.056218   1.000000
   63       -4.998980   1.000000
   64       -4.772217   1.000000
   65       -4.590106   1.000000
   66       -4.576238   1.000000
   67       -4.467161   1.000000
   68       -4.428144   1.000000
   69       -4.351394   1.000000
   70       -4.292241   1.000000
   71       -4.182440   1.000000
   72       -4.136293   1.000000
   73       -4.049689   1.000000
   74       -4.042300   1.000000
   75       -4.001036   1.000000
   76       -3.975312   1.000000
   77       -3.949394   1.000000
   78       -3.919178   1.000000
   79       -3.865769   1.000000
   80       -3.831177   1.000000
   81       -3.792087   1.000000
   82       -3.730272   1.000000
   83       -3.711086   1.000000
   84       -3.683183   1.000000
   85       -3.650074   1.000000
   86       -3.542753   1.000000
   87       -3.474864   1.000000
   88       -3.454375   1.000000
   89       -3.336636   1.000000
   90       -3.324305   1.000000
   91       -3.313026   1.000000
   92       -3.228263   1.000000
   93       -3.101240   1.000000
   94       -2.995284   1.000000
   95       -2.933438   1.000000
   96       -2.757932   1.000000
   97       -2.720544   1.000000
   98       -2.716763   1.000000
   99       -2.619715   1.000000
  100       -2.527835   1.000000
  101       -2.425509   1.000000
  102       -2.373811   1.000000
  103       -2.359690   1.000000
  104       -2.287644   1.000000
  105       -2.271458   1.000000
  106       -2.184220   1.000000
  107       -2.071512   1.000000
  108       -2.019068   1.000000
  109       -1.987442   1.000000
  110       -1.914729   1.000000
  111       -1.892850   1.000000
  112       -1.871545   1.000000
  113       -1.738822   1.000000
  114       -1.702511   1.000000
  115       -1.680612   1.000000
  116       -1.608940   1.000000
  117       -1.510741   1.000000
  118       -1.474593   1.000000
  119       -1.403721   1.000000
  120       -1.371159   1.000000
  121       -1.321209   1.000000
  122       -1.058923   1.000000
  123       -0.918635   1.000000
  124       -0.880083   1.000000
  125       -0.723559   1.000000
  126       -0.641746   1.000000
  127       -0.500922   1.000000
  128       -0.430419   1.000000
  129       -0.403767   1.000000
  130       -0.212146   1.000000
  131       -0.089785   1.000000
  132       -0.061981   1.000000
  133        0.033245   1.000000
  134        0.156292   1.000000
  135        0.236257   1.000000
  136        0.430133   1.000825
  137        0.455471   1.002481
  138        0.467194   1.003919
  139        0.492008   1.009201
  140        0.531615   1.024935
  141        0.536835   1.027319
  142        0.581777   1.030146
  143        0.605633   0.994856
  144        0.763416   0.021379
  145        0.791984  -0.029117
  146        0.803229  -0.034672
  147        0.927226  -0.001816
  148        0.973313  -0.000203
  149        1.011306  -0.000023
  150        1.198761  -0.000000
  151        1.261223  -0.000000
  152        1.292061  -0.000000
  153        1.324669  -0.000000
  154        1.380015  -0.000000
  155        1.441316  -0.000000
  156        1.466712  -0.000000
  157        1.493909  -0.000000
  158        1.528797  -0.000000
  159        1.574626  -0.000000
  160        1.651396  -0.000000
  161        1.661833  -0.000000
  162        1.666715  -0.000000
  163        1.694876  -0.000000
  164        1.711024  -0.000000
  165        1.787377  -0.000000
  166        1.822204  -0.000000
  167        1.905578  -0.000000
  168        1.928840  -0.000000
  169        1.941361  -0.000000
  170        1.958461  -0.000000
  171        2.010242  -0.000000
  172        2.040908  -0.000000
  173        2.046823  -0.000000
  174        2.085747  -0.000000
  175        2.159086  -0.000000
  176        2.177893  -0.000000
  177        2.218031  -0.000000
  178        2.243731  -0.000000
  179        2.367989  -0.000000
  180        2.428088  -0.000000
  181        2.574349  -0.000000
  182        2.724586  -0.000000
  183        2.824062  -0.000000
  184        3.217820  -0.000000

  0.2000000E+00  0.1111111E+00  0.1262379E-14  0.4444444E-01
    1      -13.695113   1.000000
    2      -12.997260   1.000000
    3      -12.528318   1.000000
    4      -12.124490   1.000000
    5      -11.882238   1.000000
    6      -11.710439   1.000000
    7      -11.504195   1.000000
    8      -11.175455   1.000000
    9      -11.156454   1.000000
   10      -11.141286   1.000000
   11      -11.036641   1.000000
   12      -10.956701   1.000000
   13      -10.774068   1.000000
   14      -10.639753   1.000000
   15      -10.558802   1.000000
   16      -10.526913   1.000000
   17      -10.398614   1.000000
   18      -10.249386   1.000000
   19       -9.973694   1.000000
   20       -9.866223   1.000000
   21       -9.492701   1.000000
   22       -9.379240   1.000000
   23       -9.365341   1.000000
   24       -9.236202   1.000000
   25       -9.096477   1.000000
   26       -8.944239   1.000000
   27       -8.523503   1.000000
   28       -8.353322   1.000000
   29       -8.185875   1.000000
   30       -8.140098   1.000000
   31       -7.982174   1.000000
   32       -7.760306   1.000000
   33       -7.599816   1.000000
   34       -7.561349   1.000000
   35       -7.439898   1.000000
   36       -7.306067   1.000000
   37       -7.084889   1.000000
   38       -6.916649   1.000000
   39       -6.900395   1.000000
   40       -6.648807   1.000000
   41       -6.626470   1.000000
   42       -6.541781   1.000000
   43       -6.491572   1.000000
   44       -6.416142   1.000000
   45       -6.378438   1.000000
   46       -6.290088   1.000000
   47       -6.107269   1.000000
   48       -5.999748   1.000000
   49       -5.913409   1.000000
   50       -5.851174   1.000000
   51       -5.741065   1.000000
   52       -5.725663   1.000000
   53       -5.660443   1.000000
   54       -5.569639   1.000000
   55       -5.422505   1.000000
   56       -5.344556   1.000000
   57       -5.309662   1.000000
   58       -5.281245   1.000000
   59       -5.164167   1.000000
   60       -5.125112   1.000000
   61       -5.084372   1.000000
   62       -5.053984   1.000000
   63       -4.959492   1.000000
   64       -4.908283   1.000000
   65       -4.592732   1.000000
   66       -4.530823   1.000000
   67       -4.477139   1.000000
   68       -4.414707   1.000000
   69       -4.378842   1.000000
   70       -4.335908   1.000000
   71       -4.167643   1.000000
   72       -4.131865   1.000000
   73       -4.076905   1.000000
   74       -4.023087   1.000000
   75       -3.990584   1.000000
   76       -3.964315   1.000000
   77       -3.958747   1.000000
   78       -3.877950   1.000000
   79       -3.868169   1.000000
   80       -3.847979   1.000000
   81       -3.798490   1.000000
   82       -3.762312   1.000000
   83       -3.713891   1.000000
   84       -3.670867   1.000000
   85       -3.577874   1.000000
   86       -3.553543   1.000000
   87       -3.504202   1.000000
   88       -3.465211   1.000000
   89       -3.357854   1.000000
   90       -3.297356   1.000000
   91       -3.270310   1.000000
   92       -3.200102   1.000000
   93       -3.105865   1.000000
   94       -3.052019   1.000000
   95       -2.969532   1.000000
   96       -2.846666   1.000000
   97       -2.804562   1.000000
   98       -2.685271   1.000000
   99       -2.642049   1.000000
  100       -2.583293   1.000000
  101       -2.553312   1.000000
  102       -2.458950   1.000000
  103       -2.284366   1.000000
  104       -2.223518   1.000000
  105       -2.145446   1.000000
  106       -2.101392   1.000000
  107       -2.072042   1.000000
  108       -2.012525   1.000000
  109       -1.997002   1.000000
  110       -1.879151   1.000000
  111       -1.834191   1.000000
  112       -1.772412   1.000000
  113       -1.707180   1.000000
  114       -1.687624   1.000000
  115       -1.676847   1.000000
  116       -1.591585   1.000000
  117       -1.517880   1.000000
  118       -1.487803   1.000000
  119       -1.384698   1.000000
  120       -1.338028   1.000000
  121       -1.260510   1.000000
  122       -1.109207   1.000000
  123       -1.017607   1.000000
  124       -0.887115   1.000000
  125       -0.745148   1.000000
  126       -0.731622   1.000000
  127       -0.602331   1.000000
  128       -0.579280   1.000000
  129       -0.306536   1.000000
  130       -0.237541   1.000000
  131       -0.130956   1.000000
  132       -0.032901   1.000000
  133        0.075244   1.000000
  134        0.148544   1.000000
  135        0.198008   1.000000
  136        0.241456   1.000000
  137        0.318022   1.000001
  138        0.384526   1.000079
  139        0.482375   1.006733
  140        0.588122   1.024553
  141        0.609456   0.985084
  142        0.673678   0.616378
  143        0.703409   0.367867
  144        0.721206   0.232463
  145        0.811838  -0.035410
  146        0.842475  -0.025426
  147        0.867960  -0.014285
  148        1.060824  -0.000001
  149        1.098829  -0.000000
  150        1.138026  -0.000000
  151        1.249649  -0.000000
  152        1.298008  -0.000000
  153        1.340896  -0.000000
  154        1.430619  -0.000000
  155        1.469608  -0.000000
  156        1.537383  -0.000000
  157        1.563619  -0.000000