 running on   72 total cores
 distrk:  each k-point on   72 cores,    1 groups
 distr:  one band on    9 cores,    8 groups
 using from now: INCAR     
 vasp.5.4.4.18Apr17-6-g9f103f2a35 (build Dec  7 2020 12:43:57) complex           
 POSCAR found type information on POSCAR  Mo V  B  H 
 POSCAR found :  4 types and      75 ions
 scaLAPACK will be used

 ----------------------------------------------------------------------------- 
|                                                                             |
|  ADVICE TO THIS USER RUNNING 'VASP/VAMP'   (HEAR YOUR MASTER'S VOICE ...):  |
|                                                                             |
|      You enforced a specific xc-type in the INCAR file,                     |
|      a different type was found on the POTCAR file                          |
|          I HOPE YOU KNOW, WHAT YOU ARE  DOING                               |
|                                                                             |
 ----------------------------------------------------------------------------- 

 LDA part: xc-table for Pade appr. of Perdew
 POSCAR, INCAR and KPOINTS ok, starting setup
 resort distribution
 resort distribution
 resort distribution
 resort distribution
 resort distribution
 resort distribution
 resort distribution
 resort distribution
 resort distribution
 resort distribution
 resort distribution
 resort distribution
 resort distribution
 resort distribution
 resort distribution
 resort distribution
 resort distribution
 resort distribution
 resort distribution
 resort distribution
 resort distribution
 resort distribution
 resort distribution
 resort distribution
 resort distribution
 resort distribution
 resort distribution
 resort distribution
 resort distribution
 resort distribution
 resort distribution
 resort distribution
 resort distribution
 resort distribution
 resort distribution
 resort distribution
 resort distribution
 resort distribution
 resort distribution
 resort distribution
 resort distribution
 resort distribution
 resort distribution
 resort distribution
 resort distribution
 resort distribution
 resort distribution
 resort distribution
 resort distribution
 resort distribution
 resort distribution
 resort distribution
 resort distribution
 resort distribution
 resort distribution
 resort distribution
 resort distribution
 resort distribution
 resort distribution
 resort distribution
 resort distribution
 resort distribution
 resort distribution
 resort distribution
 resort distribution
 resort distribution
 resort distribution
 resort distribution
 resort distribution
 resort distribution
 resort distribution
 resort distribution
 FFT: planning ...
 WAVECAR not read
 augmentation electrons   285.06517125835262     
 soft         electrons   0.0000000000000000     
 augmentation electrons   285.06517125835262     
 soft         electrons   0.0000000000000000     
 augmentation electrons   285.06517125835262     
 soft         electrons   0.0000000000000000     
 augmentation electrons   285.06517125835262     
 soft         electrons   0.0000000000000000     
 augmentation electrons   285.06517125835262     
 soft         electrons   0.0000000000000000     
 augmentation electrons   285.06517125835262     
 soft         electrons   0.0000000000000000     
 augmentation electrons   285.06517125835262     
 soft         electrons   0.0000000000000000     
 augmentation electrons   285.06517125835262     
 soft         electrons   0.0000000000000000     
 augmentation electrons   285.06517125835262     
 soft         electrons   0.0000000000000000     
 augmentation electrons   285.06517125835262     
 soft         electrons   0.0000000000000000     
 augmentation electrons   285.06517125835262     
 soft         electrons   0.0000000000000000     
 augmentation electrons   285.06517125835262     
 soft         electrons   0.0000000000000000     
 augmentation electrons   285.06517125835262     
 soft         electrons   0.0000000000000000     
 augmentation electrons   285.06517125835262     
 soft         electrons   0.0000000000000000     
 augmentation electrons   285.06517125835262     
 soft         electrons   0.0000000000000000     
 augmentation electrons   285.06517125835262     
 soft         electrons   0.0000000000000000     
 augmentation electrons   285.06517125835262     
 soft         electrons   0.0000000000000000     
 augmentation electrons   285.06517125835262     
 soft         electrons   0.0000000000000000     
 augmentation electrons   285.06517125835262     
 soft         electrons   0.0000000000000000     
 augmentation electrons   285.06517125835262     
 soft         electrons   0.0000000000000000     
 augmentation electrons   285.06517125835262     
 soft         electrons   0.0000000000000000     
 augmentation electrons   285.06517125835262     
 soft         electrons   0.0000000000000000     
 augmentation electrons   285.06517125835262     
 soft         electrons   0.0000000000000000     
 augmentation electrons   285.06517125835262     
 soft         electrons   0.0000000000000000     
 augmentation electrons   285.06517125835262     
 soft         electrons   0.0000000000000000     
 augmentation electrons   285.06517125835262     
 soft         electrons   0.0000000000000000     
 augmentation electrons   285.06517125835262     
 soft         electrons   0.0000000000000000     
 augmentation electrons   285.06517125835262     
 soft         electrons   0.0000000000000000     
 augmentation electrons   285.06517125835262     
 soft         electrons   0.0000000000000000     
 augmentation electrons   285.06517125835262     
 soft         electrons   0.0000000000000000     
 augmentation electrons   285.06517125835262     
 soft         electrons   0.0000000000000000     
 augmentation electrons   285.06517125835262     
 soft         electrons   0.0000000000000000     
 augmentation electrons   285.06517125835262     
 soft         electrons   0.0000000000000000     
 augmentation electrons   285.06517125835262     
 soft         electrons   0.0000000000000000     
 augmentation electrons   285.06517125835262     
 soft         electrons   0.0000000000000000     
 augmentation electrons   285.06517125835262     
 soft         electrons   0.0000000000000000     
 augmentation electrons   285.06517125835262     
 soft         electrons   0.0000000000000000     
 augmentation electrons   285.06517125835262     
 soft         electrons   0.0000000000000000     
 augmentation electrons   285.06517125835262     
 soft         electrons   0.0000000000000000     
 augmentation electrons   285.06517125835262     
 soft         electrons   0.0000000000000000     
 augmentation electrons   285.06517125835262     
 soft         electrons   0.0000000000000000     
 augmentation electrons   285.06517125835262     
 soft         electrons   0.0000000000000000     
 augmentation electrons   285.06517125835262     
 soft         electrons   0.0000000000000000     
 augmentation electrons   285.06517125835262     
 soft         electrons   0.0000000000000000     
 augmentation electrons   285.06517125835262     
 soft         electrons   0.0000000000000000     
 augmentation electrons   285.06517125835262     
 soft         electrons   0.0000000000000000     
 augmentation electrons   285.06517125835262     
 soft         electrons   0.0000000000000000     
 augmentation electrons   285.06517125835262     
 soft         electrons   0.0000000000000000     
 augmentation electrons   285.06517125835262     
 soft         electrons   0.0000000000000000     
 augmentation electrons   285.06517125835262     
 soft         electrons   0.0000000000000000     
 augmentation electrons   285.06517125835262     
 soft         electrons   0.0000000000000000     
 augmentation electrons   285.06517125835262     
 soft         electrons   0.0000000000000000     
 augmentation electrons   285.06517125835262     
 soft         electrons   0.0000000000000000     
 augmentation electrons   285.06517125835262     
 soft         electrons   0.0000000000000000     
 augmentation electrons   285.06517125835262     
 soft         electrons   0.0000000000000000     
 augmentation electrons   285.06517125835262     
 soft         electrons   0.0000000000000000     
 augmentation electrons   285.06517125835262     
 soft         electrons   0.0000000000000000     
 augmentation electrons   285.06517125835262     
 soft         electrons   0.0000000000000000     
 augmentation electrons   285.06517125835262     
 soft         electrons   0.0000000000000000     
 augmentation electrons   285.06517125835262     
 soft         electrons   0.0000000000000000     
 augmentation electrons   285.06517125835262     
 soft         electrons   0.0000000000000000     
 augmentation electrons   285.06517125835262     
 soft         electrons   0.0000000000000000     
 augmentation electrons   285.06517125835262     
 soft         electrons   0.0000000000000000     
 augmentation electrons   285.06517125835262     
 soft         electrons   0.0000000000000000     
 augmentation electrons   285.06517125835262     
 soft         electrons   0.0000000000000000     
 augmentation electrons   285.06517125835262     
 soft         electrons   0.0000000000000000     
 augmentation electrons   285.06517125835262     
 soft         electrons   0.0000000000000000     
 augmentation electrons   285.06517125835262     
 soft         electrons   0.0000000000000000     
 augmentation electrons   285.06517125835262     
 soft         electrons   0.0000000000000000     
 augmentation electrons   285.06517125835262     
 soft         electrons   0.0000000000000000     
 augmentation electrons   285.06517125835262     
 soft         electrons   0.0000000000000000     
 total        electrons   285.06517125835262     
 total        electrons   285.06517125835262     
 total        electrons   285.06517125835262     
 total        electrons   285.06517125835262     
 total        electrons   285.06517125835262     
 total        electrons   285.06517125835262     
 total        electrons   285.06517125835262     
 total        electrons   285.06517125835262     
 total        electrons   285.06517125835262     
 total        electrons   285.06517125835262     
 total        electrons   285.06517125835262     
 total        electrons   285.06517125835262     
 total        electrons   285.06517125835262     
 total        electrons   285.06517125835262     
 total        electrons   285.06517125835262     
 total        electrons   285.06517125835262     
 total        electrons   285.06517125835262     
 total        electrons   285.06517125835262     
 total        electrons   285.06517125835262     
 total        electrons   285.06517125835262     
 total        electrons   285.06517125835262     
 total        electrons   285.06517125835262     
 total        electrons   285.06517125835262     
 total        electrons   285.06517125835262     
 total        electrons   285.06517125835262     
 total        electrons   285.06517125835262     
 total        electrons   285.06517125835262     
 augmentation electrons   285.06517125835262     
 soft         electrons   0.0000000000000000     
 total        electrons   285.06517125835262     
 total        electrons   285.06517125835262     
 total        electrons   285.06517125835262     
 total        electrons   285.06517125835262     
 total        electrons   285.06517125835262     
 total        electrons   285.06517125835262     
 total        electrons   285.06517125835262     
 total        electrons   285.06517125835262     
 total        electrons   285.06517125835262     
 total        electrons   285.06517125835262     
 total        electrons   285.06517125835262     
 total        electrons   285.06517125835262     
 total        electrons   285.06517125835262     
 total        electrons   285.06517125835262     
 total        electrons   285.06517125835262     
 total        electrons   285.06517125835262     
 total        electrons   285.06517125835262     
 total        electrons   285.06517125835262     
 total        electrons   285.06517125835262     
 total        electrons   285.06517125835262     
 total        electrons   285.06517125835262     
 total        electrons   285.06517125835262     
 total        electrons   285.06517125835262     
 total        electrons   285.06517125835262     
 total        electrons   285.06517125835262     
 total        electrons   285.06517125835262     
 total        electrons   285.06517125835262     
 total        electrons   285.06517125835262     
 total        electrons   285.06517125835262     
 total        electrons   285.06517125835262     
 total        electrons   285.06517125835262     
 total        electrons   285.06517125835262     
 total        electrons   285.06517125835262     
 total        electrons   285.06517125835262     
 total        electrons   285.06517125835262     
 total        electrons   285.06517125835262     
 total        electrons   285.06517125835262     
 total        electrons   285.06517125835262     
 total        electrons   285.06517125835262     
 total        electrons   285.06517125835262     
 total        electrons   285.06517125835262     
 total        electrons   285.06517125835262     
 total        electrons   285.06517125835262     
 total        electrons   285.06517125835262     
 total        electrons   285.06517125835262     
 augmentation electrons   1284.9953543078657     
 soft         electrons   0.0000000000000000     
 total        electrons   1284.9953543078657     
 augmentation electrons   1284.9953543078657     
 soft         electrons   0.0000000000000000     
 total        electrons   1284.9953543078657     
 augmentation electrons   1284.9953543078657     
 soft         electrons   0.0000000000000000     
 total        electrons   1284.9953543078657     
 augmentation electrons   1284.9953543078657     
 soft         electrons   0.0000000000000000     
 total        electrons   1284.9953543078657     
 augmentation electrons   1284.9953543078657     
 soft         electrons   0.0000000000000000     
 total        electrons   1284.9953543078657     
 augmentation electrons   1284.9953543078657     
 soft         electrons   0.0000000000000000     
 total        electrons   1284.9953543078657     
 augmentation electrons   1284.9953543078657     
 soft         electrons   0.0000000000000000     
 total        electrons   1284.9953543078657     
 augmentation electrons   1284.9953543078657     
 soft         electrons   0.0000000000000000     
 total        electrons   1284.9953543078657     
 augmentation electrons   1284.9953543078657     
 soft         electrons   0.0000000000000000     
 total        electrons   1284.9953543078657     
 augmentation electrons   1284.9953543078657     
 soft         electrons   0.0000000000000000     
 total        electrons   1284.9953543078657     
 augmentation electrons   1284.9953543078657     
 soft         electrons   0.0000000000000000     
 total        electrons   1284.9953543078657     
 augmentation electrons   1284.9953543078657     
 soft         electrons   0.0000000000000000     
 total        electrons   1284.9953543078657     
 augmentation electrons   1284.9953543078657     
 soft         electrons   0.0000000000000000     
 total        electrons   1284.9953543078657     
 augmentation electrons   1284.9953543078657     
 soft         electrons   0.0000000000000000     
 total        electrons   1284.9953543078657     
 augmentation electrons   1284.9953543078657     
 soft         electrons   0.0000000000000000     
 total        electrons   1284.9953543078657     
 augmentation electrons   1284.9953543078657     
 soft         electrons   0.0000000000000000     
 total        electrons   1284.9953543078657     
 augmentation electrons   1284.9953543078657     
 soft         electrons   0.0000000000000000     
 total        electrons   1284.9953543078657     
 augmentation electrons   1284.9953543078657     
 soft         electrons   0.0000000000000000     
 total        electrons   1284.9953543078657     
 augmentation electrons   1284.9953543078657     
 soft         electrons   0.0000000000000000     
 total        electrons   1284.9953543078657     
 augmentation electrons   1284.9953543078657     
 soft         electrons   0.0000000000000000     
 total        electrons   1284.9953543078657     
 augmentation electrons   1284.9953543078657     
 soft         electrons   0.0000000000000000     
 total        electrons   1284.9953543078657     
 augmentation electrons   1284.9953543078657     
 soft         electrons   0.0000000000000000     
 total        electrons   1284.9953543078657     
 augmentation electrons   1284.9953543078657     
 soft         electrons   0.0000000000000000     
 total        electrons   1284.9953543078657     
 augmentation electrons   1284.9953543078657     
 soft         electrons   0.0000000000000000     
 total        electrons   1284.9953543078657     
 augmentation electrons   1284.9953543078657     
 soft         electrons   0.0000000000000000     
 total        electrons   1284.9953543078657     
 augmentation electrons   1284.9953543078657     
 soft         electrons   0.0000000000000000     
 total        electrons   1284.9953543078657     
 augmentation electrons   1284.9953543078657     
 soft         electrons   0.0000000000000000     
 total        electrons   1284.9953543078657     
 augmentation electrons   1284.9953543078657     
 soft         electrons   0.0000000000000000     
 total        electrons   1284.9953543078657     
 augmentation electrons   1284.9953543078657     
 soft         electrons   0.0000000000000000     
 total        electrons   1284.9953543078657     
 augmentation electrons   1284.9953543078657     
 soft         electrons   0.0000000000000000     
 total        electrons   1284.9953543078657     
 augmentation electrons   1284.9953543078657     
 soft         electrons   0.0000000000000000     
 total        electrons   1284.9953543078657     
 augmentation electrons   1284.9953543078657     
 soft         electrons   0.0000000000000000     
 total        electrons   1284.9953543078657     
 augmentation electrons   1284.9953543078657     
 soft         electrons   0.0000000000000000     
 total        electrons   1284.9953543078657     
 augmentation electrons   1284.9953543078657     
 soft         electrons   0.0000000000000000     
 total        electrons   1284.9953543078657     
 augmentation electrons   1284.9953543078657     
 soft         electrons   0.0000000000000000     
 total        electrons   1284.9953543078657     
 augmentation electrons   1284.9953543078657     
 soft         electrons   0.0000000000000000     
 total        electrons   1284.9953543078657     
 augmentation electrons   1284.9953543078657     
 soft         electrons   0.0000000000000000     
 total        electrons   1284.9953543078657     
 augmentation electrons   1284.9953543078657     
 soft         electrons   0.0000000000000000     
 total        electrons   1284.9953543078657     
 augmentation electrons   1284.9953543078657     
 soft         electrons   0.0000000000000000     
 total        electrons   1284.9953543078657     
 augmentation electrons   1284.9953543078657     
 soft         electrons   0.0000000000000000     
 total        electrons   1284.9953543078657     
 augmentation electrons   1284.9953543078657     
 soft         electrons   0.0000000000000000     
 total        electrons   1284.9953543078657     
 augmentation electrons   1284.9953543078657     
 soft         electrons   0.0000000000000000     
 total        electrons   1284.9953543078657     
 augmentation electrons   1284.9953543078657     
 soft         electrons   0.0000000000000000     
 total        electrons   1284.9953543078657     
 augmentation electrons   1284.9953543078657     
 soft         electrons   0.0000000000000000     
 total        electrons   1284.9953543078657     
 augmentation electrons   1284.9953543078657     
 soft         electrons   0.0000000000000000     
 total        electrons   1284.9953543078657     
 augmentation electrons   1284.9953543078657     
 soft         electrons   0.0000000000000000     
 total        electrons   1284.9953543078657     
 augmentation electrons   1284.9953543078657     
 soft         electrons   0.0000000000000000     
 total        electrons   1284.9953543078657     
 augmentation electrons   1284.9953543078657     
 soft         electrons   0.0000000000000000     
 total        electrons   1284.9953543078657     
 augmentation electrons   1284.9953543078657     
 soft         electrons   0.0000000000000000     
 total        electrons   1284.9953543078657     
 augmentation electrons   1284.9953543078657     
 soft         electrons   0.0000000000000000     
 total        electrons   1284.9953543078657     
 augmentation electrons   1284.9953543078657     
 soft         electrons   0.0000000000000000     
 total        electrons   1284.9953543078657     
 augmentation electrons   1284.9953543078657     
 soft         electrons   0.0000000000000000     
 total        electrons   1284.9953543078657     
 augmentation electrons   1284.9953543078657     
 soft         electrons   0.0000000000000000     
 total        electrons   1284.9953543078657     
 augmentation electrons   1284.9953543078657     
 soft         electrons   0.0000000000000000     
 total        electrons   1284.9953543078657     
 augmentation electrons   1284.9953543078657     
 soft         electrons   0.0000000000000000     
 total        electrons   1284.9953543078657     
 augmentation electrons   1284.9953543078657     
 soft         electrons   0.0000000000000000     
 total        electrons   1284.9953543078657     
 augmentation electrons   1284.9953543078657     
 soft         electrons   0.0000000000000000     
 augmentation electrons   1284.9953543078657     
 soft         electrons   0.0000000000000000     
 total        electrons   1284.9953543078657     
 augmentation electrons   1284.9953543078657     
 soft         electrons   0.0000000000000000     
 total        electrons   1284.9953543078657     
 augmentation electrons   1284.9953543078657     
 soft         electrons   0.0000000000000000     
 total        electrons   1284.9953543078657     
 augmentation electrons   1284.9953543078657     
 soft         electrons   0.0000000000000000     
 total        electrons   1284.9953543078657     
 augmentation electrons   1284.9953543078657     
 soft         electrons   0.0000000000000000     
 total        electrons   1284.9953543078657     
 augmentation electrons   1284.9953543078657     
 soft         electrons   0.0000000000000000     
 total        electrons   1284.9953543078657     
 augmentation electrons   1284.9953543078657     
 soft         electrons   0.0000000000000000     
 total        electrons   1284.9953543078657     
 augmentation electrons   1284.9953543078657     
 soft         electrons   0.0000000000000000     
 total        electrons   1284.9953543078657     
 augmentation electrons   1284.9953543078657     
 soft         electrons   0.0000000000000000     
 total        electrons   1284.9953543078657     
 augmentation electrons   1284.9953543078657     
 soft         electrons   0.0000000000000000     
 total        electrons   1284.9953543078657     
 augmentation electrons   1284.9953543078657     
 soft         electrons   0.0000000000000000     
 total        electrons   1284.9953543078657     
 augmentation electrons   1284.9953543078657     
 soft         electrons   0.0000000000000000     
 total        electrons   1284.9953543078657     
 augmentation electrons   1284.9953543078657     
 soft         electrons   0.0000000000000000     
 augmentation electrons   1284.9953543078657     
 soft         electrons   0.0000000000000000     
 total        electrons   1284.9953543078657     
 augmentation electrons   1284.9953543078657     
 soft         electrons   0.0000000000000000     
 total        electrons   1284.9953543078657     
 total        electrons   1284.9953543078657     
 total        electrons   1284.9953543078657     
 entering main loop
       N       E                     dE             d eps       ncg     rms          rms(c)
DAV:   1     0.250395975503E+04    0.25040E+04   -0.10350E+05  8464   0.127E+03
DAV:   2    -0.181933508624E+03   -0.26859E+04   -0.24977E+04  9608   0.315E+02
DAV:   3    -0.626829882300E+03   -0.44490E+03   -0.42211E+03 11912   0.147E+02
DAV:   4    -0.665079276236E+03   -0.38249E+02   -0.36565E+02 13696   0.473E+01
DAV:   5    -0.667546060103E+03   -0.24668E+01   -0.23776E+01 14432   0.113E+01    0.146E+02
RMM:   6    -0.617903863006E+03    0.49642E+02   -0.11278E+03 13333   0.876E+01    0.698E+01
RMM:   7    -0.705476683238E+03   -0.87573E+02   -0.36589E+02 11173   0.516E+01    0.560E+01
RMM:   8    -0.627360040859E+03    0.78117E+02   -0.19788E+02 11964   0.268E+01    0.420E+01
RMM:   9    -0.579008462939E+03    0.48352E+02   -0.42023E+01 12046   0.165E+01    0.266E+01
RMM:  10    -0.568027145080E+03    0.10981E+02   -0.31651E+01 10560   0.158E+01    0.191E+01
RMM:  11    -0.566806878903E+03    0.12203E+01   -0.88678E+00 11417   0.723E+00    0.154E+01
RMM:  12    -0.566893633606E+03   -0.86755E-01   -0.21037E+00 13290   0.195E+00    0.141E+01
RMM:  13    -0.566631175219E+03    0.26246E+00   -0.12086E+00 12194   0.259E+00    0.117E+01
RMM:  14    -0.566697563991E+03   -0.66389E-01   -0.40560E+00  9995   0.651E+00    0.769E+00
RMM:  15    -0.565945460409E+03    0.75210E+00   -0.10613E+00  9651   0.357E+00    0.399E+00
RMM:  16    -0.565736708212E+03    0.20875E+00   -0.94717E-01 13094   0.148E+00    0.237E+00
RMM:  17    -0.565722024578E+03    0.14684E-01   -0.34140E-01 13195   0.102E+00    0.213E+00
RMM:  18    -0.565701965770E+03    0.20059E-01   -0.16393E-01 11229   0.114E+00    0.161E+00
RMM:  19    -0.565675310697E+03    0.26655E-01   -0.12999E-01 12381   0.767E-01    0.696E-01
RMM:  20    -0.565673186577E+03    0.21241E-02   -0.45588E-02 11912   0.475E-01    0.674E-01
RMM:  21    -0.565667520596E+03    0.56660E-02   -0.13441E-02 11235   0.295E-01    0.214E-01
RMM:  22    -0.565666885046E+03    0.63555E-03   -0.12822E-02 13213   0.159E-01    0.260E-01
RMM:  23    -0.565664980606E+03    0.19044E-02   -0.46397E-03 10715   0.185E-01    0.163E-01
RMM:  24    -0.565664744800E+03    0.23581E-03   -0.20160E-03 12255   0.854E-02    0.771E-02
RMM:  25    -0.565664911710E+03   -0.16691E-03   -0.12187E-03 12230   0.695E-02    0.821E-02
RMM:  26    -0.565665158879E+03   -0.24717E-03   -0.54935E-04 11065   0.581E-02    0.703E-02
RMM:  27    -0.565665644970E+03   -0.48609E-03   -0.42347E-04 11528   0.396E-02    0.448E-02
RMM:  28    -0.565665985317E+03   -0.34035E-03   -0.23350E-04 11095   0.354E-02    0.357E-02
RMM:  29    -0.565666271704E+03   -0.28639E-03   -0.30577E-04 12025   0.295E-02    0.270E-02
RMM:  30    -0.565666342520E+03   -0.70817E-04   -0.13170E-04 10586   0.276E-02    0.329E-02
RMM:  31    -0.565666385558E+03   -0.43037E-04   -0.65206E-05 10597   0.113E-02    0.179E-02
RMM:  32    -0.565666498419E+03   -0.11286E-03   -0.28397E-05 10618   0.921E-03    0.843E-03
RMM:  33    -0.565666667381E+03   -0.16896E-03   -0.28321E-05 10490   0.811E-03    0.843E-03
RMM:  34    -0.565666844783E+03   -0.17740E-03   -0.14759E-05  8479   0.692E-03    0.658E-03
RMM:  35    -0.565666989092E+03   -0.14431E-03   -0.13784E-05  8230   0.500E-03    0.675E-03
RMM:  36    -0.565667058398E+03   -0.69306E-04   -0.68277E-06  7763   0.407E-03    0.418E-03
RMM:  37    -0.565667107942E+03   -0.49544E-04   -0.66499E-06  7926   0.377E-03    0.437E-03
RMM:  38    -0.565667122579E+03   -0.14636E-04   -0.23676E-06  7054   0.423E-03    0.194E-03
RMM:  39    -0.565667133960E+03   -0.11381E-04   -0.18448E-06  6843   0.323E-03    0.242E-03
RMM:  40    -0.565667134110E+03   -0.15022E-06   -0.53807E-07  5915   0.274E-03
   1 F= -.56566713E+03 E0= -.56566669E+03  d E =-.131883E-02
 augmentation electrons   31.546026996240379     
 soft         electrons   253.58169230774604     
 total        electrons   285.12771930398640     
 augmentation electrons   31.546026996240379     
 soft         electrons   253.58169230774604     
 total        electrons   285.12771930398640     
 augmentation electrons   31.546026996240379     
 soft         electrons   253.58169230774604     
 augmentation electrons   31.546026996240379     
 soft         electrons   253.58169230774604     
 augmentation electrons   31.546026996240379     
 soft         electrons   253.58169230774604     
 augmentation electrons   31.546026996240379     
 soft         electrons   253.58169230774604     
 total        electrons   285.12771930398640     
 augmentation electrons   31.546026996240379     
 soft         electrons   253.58169230774604     
 augmentation electrons   31.546026996240379     
 soft         electrons   253.58169230774604     
 augmentation electrons   31.546026996240379     
 soft         electrons   253.58169230774604     
 augmentation electrons   31.546026996240379     
 soft         electrons   253.58169230774604     
 total        electrons   285.12771930398640     
 augmentation electrons   31.546026996240379     
 soft         electrons   253.58169230774604     
 total        electrons   285.12771930398640     
 augmentation electrons   31.546026996240379     
 soft         electrons   253.58169230774604     
 augmentation electrons   31.546026996240379     
 soft         electrons   253.58169230774604     
 augmentation electrons   31.546026996240379     
 soft         electrons   253.58169230774604     
 total        electrons   285.12771930398640     
 augmentation electrons   31.546026996240379     
 soft         electrons   253.58169230774604     
 total        electrons   285.12771930398640     
 augmentation electrons   31.546026996240379     
 soft         electrons   253.58169230774604     
 total        electrons   285.12771930398640     
 augmentation electrons   31.546026996240379     
 soft         electrons   253.58169230774604     
 augmentation electrons   31.546026996240379     
 soft         electrons   253.58169230774604     
 augmentation electrons   31.546026996240379     
 soft         electrons   253.58169230774604     
 augmentation electrons   31.546026996240379     
 soft         electrons   253.58169230774604     
 augmentation electrons   31.546026996240379     
 soft         electrons   253.58169230774604     
 total        electrons   285.12771930398640     
 augmentation electrons   31.546026996240379     
 soft         electrons   253.58169230774604     
 total        electrons   285.12771930398640     
 augmentation electrons   31.546026996240379     
 soft         electrons   253.58169230774604     
 augmentation electrons   31.546026996240379     
 soft         electrons   253.58169230774604     
 total        electrons   285.12771930398640     
 augmentation electrons   31.546026996240379     
 soft         electrons   253.58169230774604     
 augmentation electrons   31.546026996240379     
 soft         electrons   253.58169230774604     
 augmentation electrons   31.546026996240379     
 soft         electrons   253.58169230774604     
 total        electrons   285.12771930398640     
 augmentation electrons   31.546026996240379     
 soft         electrons   253.58169230774604     
 total        electrons   285.12771930398640     
 augmentation electrons   31.546026996240379     
 soft         electrons   253.58169230774604     
 total        electrons   285.12771930398640     
 augmentation electrons   31.546026996240379     
 soft         electrons   253.58169230774604     
 total        electrons   285.12771930398640     
 augmentation electrons   31.546026996240379     
 soft         electrons   253.58169230774604     
 total        electrons   285.12771930398640     
 augmentation electrons   31.546026996240379     
 soft         electrons   253.58169230774604     
 total        electrons   285.12771930398640     
 augmentation electrons   31.546026996240379     
 soft         electrons   253.58169230774604     
 total        electrons   285.12771930398640     
 augmentation electrons   31.546026996240379     
 soft         electrons   253.58169230774604     
 total        electrons   285.12771930398640     
 augmentation electrons   31.546026996240379     
 soft         electrons   253.58169230774604     
 total        electrons   285.12771930398640     
 augmentation electrons   31.546026996240379     
 soft         electrons   253.58169230774604     
 total        electrons   285.12771930398640     
 augmentation electrons   31.546026996240379     
 soft         electrons   253.58169230774604     
 augmentation electrons   31.546026996240379     
 soft         electrons   253.58169230774604     
 augmentation electrons   31.546026996240379     
 soft         electrons   253.58169230774604     
 augmentation electrons   31.546026996240379     
 soft         electrons   253.58169230774604     
 augmentation electrons   31.546026996240379     
 soft         electrons   253.58169230774604     
 augmentation electrons   31.546026996240379     
 soft         electrons   253.58169230774604     
 total        electrons   285.12771930398640     
 augmentation electrons   31.546026996240379     
 soft         electrons   253.58169230774604     
 augmentation electrons   31.546026996240379     
 soft         electrons   253.58169230774604     
 total        electrons   285.12771930398640     
 augmentation electrons   31.546026996240379     
 soft         electrons   253.58169230774604     
 augmentation electrons   31.546026996240379     
 soft         electrons   253.58169230774604     
 augmentation electrons   31.546026996240379     
 soft         electrons   253.58169230774604     
 augmentation electrons   31.546026996240379     
 soft         electrons   253.58169230774604     
 augmentation electrons   31.546026996240379     
 soft         electrons   253.58169230774604     
 augmentation electrons   31.546026996240379     
 soft         electrons   253.58169230774604     
 augmentation electrons   31.546026996240379     
 soft         electrons   253.58169230774604     
 total        electrons   285.12771930398640     
 augmentation electrons   31.546026996240379     
 soft         electrons   253.58169230774604     
 total        electrons   285.12771930398640     
 augmentation electrons   31.546026996240379     
 soft         electrons   253.58169230774604     
 total        electrons   285.12771930398640     
 augmentation electrons   31.546026996240379     
 soft         electrons   253.58169230774604     
 augmentation electrons   31.546026996240379     
 soft         electrons   253.58169230774604     
 total        electrons   285.12771930398640     
 augmentation electrons   31.546026996240379     
 soft         electrons   253.58169230774604     
 augmentation electrons   31.546026996240379     
 soft         electrons   253.58169230774604     
 total        electrons   285.12771930398640     
 augmentation electrons   31.546026996240379     
 soft         electrons   253.58169230774604     
 total        electrons   285.12771930398640     
 augmentation electrons   31.546026996240379     
 soft         electrons   253.58169230774604     
 total        electrons   285.12771930398640     
 augmentation electrons   31.546026996240379     
 soft         electrons   253.58169230774604     
 augmentation electrons   31.546026996240379     
 soft         electrons   253.58169230774604     
 total        electrons   285.12771930398640     
 augmentation electrons   31.546026996240379     
 soft         electrons   253.58169230774604     
 total        electrons   285.12771930398640     
 augmentation electrons   31.546026996240379     
 soft         electrons   253.58169230774604     
 total        electrons   285.12771930398640     
 augmentation electrons   31.546026996240379     
 soft         electrons   253.58169230774604     
 total        electrons   285.12771930398640     
 augmentation electrons   31.546026996240379     
 soft         electrons   253.58169230774604     
 augmentation electrons   31.546026996240379     
 soft         electrons   253.58169230774604     
 augmentation electrons   31.546026996240379     
 soft         electrons   253.58169230774604     
 augmentation electrons   31.546026996240379     
 soft         electrons   253.58169230774604     
 total        electrons   285.12771930398640     
 augmentation electrons   31.546026996240379     
 soft         electrons   253.58169230774604     
 augmentation electrons   31.546026996240379     
 soft         electrons   253.58169230774604     
 total        electrons   285.12771930398640     
 augmentation electrons   31.546026996240379     
 soft         electrons   253.58169230774604     
 augmentation electrons   31.546026996240379     
 soft         electrons   253.58169230774604     
 total        electrons   285.12771930398640     
 total        electrons   285.12771930398640     
 total        electrons   285.12771930398640     
 total        electrons   285.12771930398640     
 total        electrons   285.12771930398640     
 total        electrons   285.12771930398640     
 total        electrons   285.12771930398640     
 total        electrons   285.12771930398640     
 total        electrons   285.12771930398640     
 total        electrons   285.12771930398640     
 total        electrons   285.12771930398640     
 total        electrons   285.12771930398640     
 total        electrons   285.12771930398640     
 total        electrons   285.12771930398640     
 total        electrons   285.12771930398640     
 total        electrons   285.12771930398640     
 total        electrons   285.12771930398640     
 total        electrons   285.12771930398640     
 total        electrons   285.12771930398640     
 total        electrons   285.12771930398640     
 total        electrons   285.12771930398640     
 total        electrons   285.12771930398640     
 total        electrons   285.12771930398640     
 total        electrons   285.12771930398640     
 total        electrons   285.12771930398640     
 total        electrons   285.12771930398640     
 total        electrons   285.12771930398640     
 total        electrons   285.12771930398640     
 total        electrons   285.12771930398640     
 total        electrons   285.12771930398640     
 total        electrons   285.12771930398640     
 total        electrons   285.12771930398640     
 total        electrons   285.12771930398640     
 total        electrons   285.12771930398640     
 total        electrons   285.12771930398640     
 total        electrons   285.12771930398640     
Note: The following floating-point exceptions are signalling: IEEE_OVERFLOW_FLAG
Note: The following floating-point exceptions are signalling: IEEE_OVERFLOW_FLAG
Note: The following floating-point exceptions are signalling: IEEE_OVERFLOW_FLAG
Note: The following floating-point exceptions are signalling: IEEE_OVERFLOW_FLAG
Note: The following floating-point exceptions are signalling: IEEE_OVERFLOW_FLAG
Note: The following floating-point exceptions are signalling: IEEE_OVERFLOW_FLAG
Note: The following floating-point exceptions are signalling: IEEE_OVERFLOW_FLAG
Note: The following floating-point exceptions are signalling: IEEE_OVERFLOW_FLAG
Note: The following floating-point exceptions are signalling: IEEE_OVERFLOW_FLAG
Note: The following floating-point exceptions are signalling: IEEE_OVERFLOW_FLAG
Note: The following floating-point exceptions are signalling: IEEE_OVERFLOW_FLAG
Note: The following floating-point exceptions are signalling: IEEE_OVERFLOW_FLAG
Note: The following floating-point exceptions are signalling: IEEE_OVERFLOW_FLAG
Note: The following floating-point exceptions are signalling: IEEE_OVERFLOW_FLAG
Note: The following floating-point exceptions are signalling: IEEE_OVERFLOW_FLAG
Note: The following floating-point exceptions are signalling: IEEE_OVERFLOW_FLAG
Note: The following floating-point exceptions are signalling: IEEE_OVERFLOW_FLAG
Note: The following floating-point exceptions are signalling: IEEE_OVERFLOW_FLAG
Note: The following floating-point exceptions are signalling: IEEE_OVERFLOW_FLAG
Note: The following floating-point exceptions are signalling: IEEE_OVERFLOW_FLAG
Note: The following floating-point exceptions are signalling: IEEE_OVERFLOW_FLAG
Note: The following floating-point exceptions are signalling: IEEE_OVERFLOW_FLAG
Note: The following floating-point exceptions are signalling: IEEE_OVERFLOW_FLAG
Note: The following floating-point exceptions are signalling: IEEE_OVERFLOW_FLAG
Note: The following floating-point exceptions are signalling: IEEE_OVERFLOW_FLAG
Note: The following floating-point exceptions are signalling: IEEE_OVERFLOW_FLAG
Note: The following floating-point exceptions are signalling: IEEE_OVERFLOW_FLAG
Note: The following floating-point exceptions are signalling: IEEE_OVERFLOW_FLAG
Note: The following floating-point exceptions are signalling: IEEE_OVERFLOW_FLAG
Note: The following floating-point exceptions are signalling: IEEE_OVERFLOW_FLAG
Note: The following floating-point exceptions are signalling: IEEE_OVERFLOW_FLAG
Note: The following floating-point exceptions are signalling: IEEE_OVERFLOW_FLAG
Note: The following floating-point exceptions are signalling: IEEE_OVERFLOW_FLAG
Note: The following floating-point exceptions are signalling: IEEE_OVERFLOW_FLAG
Note: The following floating-point exceptions are signalling: IEEE_OVERFLOW_FLAG
Note: The following floating-point exceptions are signalling: IEEE_OVERFLOW_FLAG
Note: The following floating-point exceptions are signalling: IEEE_OVERFLOW_FLAG
Note: The following floating-point exceptions are signalling: IEEE_OVERFLOW_FLAG
Note: The following floating-point exceptions are signalling: IEEE_OVERFLOW_FLAG
Note: The following floating-point exceptions are signalling: IEEE_OVERFLOW_FLAG
Note: The following floating-point exceptions are signalling: IEEE_OVERFLOW_FLAG
Note: The following floating-point exceptions are signalling: IEEE_OVERFLOW_FLAG
Note: The following floating-point exceptions are signalling: IEEE_OVERFLOW_FLAG
Note: The following floating-point exceptions are signalling: IEEE_OVERFLOW_FLAG
Note: The following floating-point exceptions are signalling: IEEE_OVERFLOW_FLAG
Note: The following floating-point exceptions are signalling: IEEE_OVERFLOW_FLAG
Note: The following floating-point exceptions are signalling: IEEE_OVERFLOW_FLAG
Note: The following floating-point exceptions are signalling: IEEE_INVALID_FLAG IEEE_OVERFLOW_FLAG
Note: The following floating-point exceptions are signalling: IEEE_OVERFLOW_FLAG
Note: The following floating-point exceptions are signalling: IEEE_INVALID_FLAG IEEE_OVERFLOW_FLAG
Note: The following floating-point exceptions are signalling: IEEE_OVERFLOW_FLAG
Note: The following floating-point exceptions are signalling: IEEE_OVERFLOW_FLAG
Note: The following floating-point exceptions are signalling: IEEE_OVERFLOW_FLAG
Note: The following floating-point exceptions are signalling: IEEE_OVERFLOW_FLAG
Note: The following floating-point exceptions are signalling: IEEE_OVERFLOW_FLAG
Note: The following floating-point exceptions are signalling: IEEE_OVERFLOW_FLAG
Note: The following floating-point exceptions are signalling: IEEE_OVERFLOW_FLAG
Note: The following floating-point exceptions are signalling: IEEE_OVERFLOW_FLAG
Note: The following floating-point exceptions are signalling: IEEE_OVERFLOW_FLAG
Note: The following floating-point exceptions are signalling: IEEE_OVERFLOW_FLAG
Note: The following floating-point exceptions are signalling: IEEE_OVERFLOW_FLAG
Note: The following floating-point exceptions are signalling: IEEE_OVERFLOW_FLAG
Note: The following floating-point exceptions are signalling: IEEE_OVERFLOW_FLAG
Note: The following floating-point exceptions are signalling: IEEE_OVERFLOW_FLAG
Note: The following floating-point exceptions are signalling: IEEE_OVERFLOW_FLAG
Note: The following floating-point exceptions are signalling: IEEE_OVERFLOW_FLAG
Note: The following floating-point exceptions are signalling: IEEE_OVERFLOW_FLAG
Note: The following floating-point exceptions are signalling: IEEE_OVERFLOW_FLAG
Note: The following floating-point exceptions are signalling: IEEE_OVERFLOW_FLAG
Note: The following floating-point exceptions are signalling: IEEE_OVERFLOW_FLAG
Note: The following floating-point exceptions are signalling: IEEE_OVERFLOW_FLAG
Note: The following floating-point exceptions are signalling: IEEE_OVERFLOW_FLAG
