   49   49    1    1
  0.2046891E+02  0.8733603E-09  0.6079487E-09  0.2183401E-08  0.5000000E-15
   1.0000000000000000E-004
  CAR 
 Name                                    
    185     50    120

  0.3742002E-15  0.3742002E-15  0.1262379E-14  0.1010101E-01
    1      -13.143610   1.000000
    2      -11.801372   1.000000
    3      -11.699239   1.000000
    4      -11.285936   1.000000
    5      -10.609859   1.000000
    6      -10.385384   1.000000
    7      -10.233606   1.000000
    8      -10.146668   1.000000
    9      -10.040270   1.000000
   10       -9.840474   1.000000
   11       -9.838751   1.000000
   12       -9.523609   1.000000
   13       -9.319738   1.000000
   14       -9.305240   1.000000
   15       -8.918300   1.000000
   16       -8.891226   1.000000
   17       -8.265415   1.000000
   18       -7.890080   1.000000
   19       -7.855612   1.000000
   20       -7.586271   1.000000
   21       -7.561297   1.000000
   22       -7.364708   1.000000
   23       -7.303824   1.000000
   24       -7.223921   1.000000
   25       -7.167492   1.000000
   26       -7.098927   1.000000
   27       -6.426114   1.000000
   28       -6.333475   1.000000
   29       -5.709063   1.000000
   30       -5.530606   1.000000
   31       -5.444311   1.000000
   32       -5.350214   1.000000
   33       -5.005650   1.000000
   34       -4.842284   1.000000
   35       -4.806437   1.000000
   36       -4.670134   1.000000
   37       -4.457076   1.000000
   38       -4.402021   1.000000
   39       -4.389538   1.000000
   40       -4.227490   1.000000
   41       -4.112342   1.000000
   42       -4.028851   1.000000
   43       -3.947777   1.000000
   44       -3.878248   1.000000
   45       -3.833136   1.000000
   46       -3.728918   1.000000
   47       -3.685162   1.000000
   48       -3.654767   1.000000
   49       -3.594141   1.000000
   50       -3.562886   1.000000
   51       -3.529566   1.000000
   52       -3.342083   1.000000
   53       -3.236871   1.000000
   54       -3.156646   1.000000
   55       -3.093547   1.000000
   56       -3.052218   1.000000
   57       -2.938480   1.000000
   58       -2.912888   1.000000
   59       -2.865654   1.000000
   60       -2.665303   1.000000
   61       -2.631109   1.000000
   62       -2.625167   1.000000
   63       -2.500811   1.000000
   64       -2.443640   1.000000
   65       -2.397653   1.000000
   66       -2.374752   1.000000
   67       -2.257278   1.000000
   68       -2.173996   1.000000
   69       -2.139092   1.000000
   70       -2.105438   1.000000
   71       -2.057300   1.000000
   72       -1.577275   1.000000
   73       -1.529025   1.000000
   74       -1.363092   1.000000
   75       -1.308801   1.000000
   76       -1.282822   1.000000
   77       -1.209851   1.000000
   78       -1.155883   1.000000
   79       -1.077014   1.000000
   80       -0.981220   1.000000
   81       -0.658432   1.000000
   82       -0.508705   1.000000
   83       -0.350634   1.000000
   84       -0.215580   1.000000
   85       -0.005434   1.000000
   86        0.013542   1.000000
   87        0.124911   1.000000
   88        0.141576   1.000000
   89        0.232773   1.000000
   90        0.581869   1.003326
   91        0.613918   1.010066
   92        0.895483  -0.009487
   93        0.939886  -0.033899
   94        0.944378  -0.032540
   95        1.019894  -0.005076
   96        1.104153  -0.000107
   97        1.189911  -0.000000
   98        1.313828  -0.000000
   99        1.377801  -0.000000
  100        1.421872  -0.000000
  101        1.440053  -0.000000
  102        1.521512  -0.000000
  103        1.566772  -0.000000
  104        1.580222  -0.000000
  105        1.593456  -0.000000
  106        1.840114  -0.000000
  107        1.963527  -0.000000
  108        2.000765  -0.000000
  109        2.028145  -0.000000
  110        2.045096  -0.000000
  111        2.104387  -0.000000
  112        2.159595  -0.000000
  113        2.197985  -0.000000
  114        2.237632  -0.000000
  115        2.280326  -0.000000
  116        2.403573  -0.000000
  117        2.621653  -0.000000
  118        2.695415  -0.000000
  119        3.683149   0.000000
  120        5.031767   0.000000

  0.1111111E+00  0.3694577E-15  0.1266495E-14  0.2020202E-01
    1      -13.118538   1.000000
    2      -11.828820   1.000000
    3      -11.777624   1.000000
    4      -11.207553   1.000000
    5      -10.601407   1.000000
    6      -10.413061   1.000000
    7      -10.220987   1.000000
    8      -10.148738   1.000000
    9      -10.043352   1.000000
   10       -9.835445   1.000000
   11       -9.828903   1.000000
   12       -9.524109   1.000000
   13       -9.319260   1.000000
   14       -9.308958   1.000000
   15       -8.902447   1.000000
   16       -8.872635   1.000000
   17       -8.254018   1.000000
   18       -7.888826   1.000000
   19       -7.852602   1.000000
   20       -7.591606   1.000000
   21       -7.575697   1.000000
   22       -7.425500   1.000000
   23       -7.366179   1.000000
   24       -7.213195   1.000000
   25       -7.162625   1.000000
   26       -7.039384   1.000000
   27       -6.528604   1.000000
   28       -6.328209   1.000000
   29       -5.673527   1.000000
   30       -5.498914   1.000000
   31       -5.415745   1.000000
   32       -5.288541   1.000000
   33       -5.041260   1.000000
   34       -4.841422   1.000000
   35       -4.782786   1.000000
   36       -4.704977   1.000000
   37       -4.587540   1.000000
   38       -4.392991   1.000000
   39       -4.344519   1.000000
   40       -4.161895   1.000000
   41       -4.143359   1.000000
   42       -3.951322   1.000000
   43       -3.894356   1.000000
   44       -3.860364   1.000000
   45       -3.813463   1.000000
   46       -3.710849   1.000000
   47       -3.691759   1.000000
   48       -3.675638   1.000000
   49       -3.584819   1.000000
   50       -3.545482   1.000000
   51       -3.509859   1.000000
   52       -3.337406   1.000000
   53       -3.237496   1.000000
   54       -3.141298   1.000000
   55       -3.089097   1.000000
   56       -3.038807   1.000000
   57       -2.969223   1.000000
   58       -2.943158   1.000000
   59       -2.886676   1.000000
   60       -2.680547   1.000000
   61       -2.634017   1.000000
   62       -2.623908   1.000000
   63       -2.517666   1.000000
   64       -2.483731   1.000000
   65       -2.393853   1.000000
   66       -2.351580   1.000000
   67       -2.244284   1.000000
   68       -2.159892   1.000000
   69       -2.131043   1.000000
   70       -2.111500   1.000000
   71       -2.032227   1.000000
   72       -1.653840   1.000000
   73       -1.509475   1.000000
   74       -1.395433   1.000000
   75       -1.349320   1.000000
   76       -1.314250   1.000000
   77       -1.204741   1.000000
   78       -1.170578   1.000000
   79       -1.093559   1.000000
   80       -0.960474   1.000000
   81       -0.584335   1.000000
   82       -0.541484   1.000000
   83       -0.370582   1.000000
   84       -0.246941   1.000000
   85       -0.046111   1.000000
   86        0.031003   1.000000
   87        0.124305   1.000000
   88        0.226719   1.000000
   89        0.247328   1.000000
   90        0.538074   1.000487
   91        0.572309   1.002273
   92        0.889368   0.003114
   93        0.907007  -0.025584
   94        1.051514  -0.001447
   95        1.078456  -0.000412
   96        1.095543  -0.000171
   97        1.133531  -0.000019
   98        1.343150  -0.000000
   99        1.348392  -0.000000
  100        1.444827  -0.000000
  101        1.465017  -0.000000
  102        1.531915  -0.000000
  103        1.575526  -0.000000
  104        1.597371  -0.000000
  105        1.614268  -0.000000
  106        1.863108  -0.000000
  107        1.992709  -0.000000
  108        2.008541  -0.000000
  109        2.024610  -0.000000
  110        2.060378  -0.000000
  111        2.112495  -0.000000
  112        2.158880  -0.000000
  113        2.194773  -0.000000
  114        2.240387  -0.000000
  115        2.300037  -0.000000
  116        2.372308  -0.000000
  117        2.423155  -0.000000
  118        2.584111  -0.000000
  119        2.671743  -0.000000
  120        2.704298  -0.000000

  0.2222222E+00  0.3681327E-15  0.1265439E-14  0.2020202E-01
    1      -13.043967   1.000000
    2      -12.066157   1.000000
    3      -11.713719   1.000000
    4      -11.138138   1.000000
    5      -10.579870   1.000000
    6      -10.449560   1.000000
    7      -10.191201   1.000000
    8      -10.154187   1.000000
    9      -10.039602   1.000000
   10       -9.821362   1.000000
   11       -9.806869   1.000000
   12       -9.548363   1.000000
   13       -9.328531   1.000000
   14       -9.313013   1.000000
   15       -8.855337   1.000000
   16       -8.817662   1.000000
   17       -8.217254   1.000000
   18       -7.880948   1.000000
   19       -7.844817   1.000000
   20       -7.642457   1.000000
   21       -7.631484   1.000000
   22       -7.516660   1.000000
   23       -7.444277   1.000000
   24       -7.229976   1.000000
   25       -7.186486   1.000000
   26       -6.876669   1.000000
   27       -6.740056   1.000000
   28       -6.321688   1.000000
   29       -5.611411   1.000000
   30       -5.443261   1.000000
   31       -5.379727   1.000000
   32       -5.249499   1.000000
   33       -5.111057   1.000000
   34       -4.850195   1.000000
   35       -4.750822   1.000000
   36       -4.710830   1.000000
   37       -4.620318   1.000000
   38       -4.364925   1.000000
   39       -4.225094   1.000000
   40       -4.151264   1.000000
   41       -4.117912   1.000000
   42       -3.953437   1.000000
   43       -3.854964   1.000000
   44       -3.823071   1.000000
   45       -3.765005   1.000000
   46       -3.741163   1.000000
   47       -3.644074   1.000000
   48       -3.606218   1.000000
   49       -3.553290   1.000000
   50       -3.494674   1.000000
   51       -3.451061   1.000000
   52       -3.339293   1.000000
   53       -3.245942   1.000000
   54       -3.136697   1.000000
   55       -3.081088   1.000000
   56       -3.054358   1.000000
   57       -3.016670   1.000000
   58       -2.974758   1.000000
   59       -2.888164   1.000000
   60       -2.694772   1.000000
   61       -2.648390   1.000000
   62       -2.622370   1.000000
   63       -2.546229   1.000000
   64       -2.515434   1.000000
   65       -2.408048   1.000000
   66       -2.374622   1.000000
   67       -2.307556   1.000000
   68       -2.195110   1.000000
   69       -2.058350   1.000000
   70       -2.014127   1.000000
   71       -1.954730   1.000000
   72       -1.820890   1.000000
   73       -1.517835   1.000000
   74       -1.455376   1.000000
   75       -1.424866   1.000000
   76       -1.382778   1.000000
   77       -1.277593   1.000000
   78       -1.171502   1.000000
   79       -1.134280   1.000000
   80       -0.860131   1.000000
   81       -0.709347   1.000000
   82       -0.443121   1.000000
   83       -0.366939   1.000000
   84       -0.309740   1.000000
   85       -0.085198   1.000000
   86        0.071712   1.000000
   87        0.142792   1.000000
   88        0.261203   1.000000
   89        0.412566   1.000000
   90        0.447922   1.000002
   91        0.484811   1.000026
   92        0.798919   0.564459
   93        1.014176  -0.006203
   94        1.053521  -0.001325
   95        1.075263  -0.000482
   96        1.130579  -0.000023
   97        1.229607  -0.000000
   98        1.327496  -0.000000
   99        1.368686  -0.000000
  100        1.435317  -0.000000
  101        1.504969  -0.000000
  102        1.569408  -0.000000
  103        1.599996  -0.000000
  104        1.650244  -0.000000
  105        1.691300  -0.000000
  106        1.934533  -0.000000
  107        1.955032  -0.000000
  108        2.029470  -0.000000
  109        2.064234  -0.000000
  110        2.115803  -0.000000
  111        2.133282  -0.000000
  112        2.181283  -0.000000
  113        2.205404  -0.000000
  114        2.293179  -0.000000
  115        2.317396  -0.000000
  116        2.383206  -0.000000
  117        2.441580  -0.000000
  118        2.554535  -0.000000
  119        2.648335  -0.000000
  120        2.799694  -0.000000

  0.3333333E+00  0.3672355E-15  0.1308213E-14  0.2020202E-01
    1      -12.921903   1.000000
    2      -12.316820   1.000000
    3      -11.610061   1.000000
    4      -11.189093   1.000000
    5      -10.547931   1.000000
    6      -10.442649   1.000000
    7      -10.169918   1.000000
    8      -10.160722   1.000000
    9       -9.998257   1.000000
   10       -9.806195   1.000000
   11       -9.784396   1.000000
   12       -9.621931   1.000000
   13       -9.338595   1.000000
   14       -9.318825   1.000000
   15       -8.785969   1.000000
   16       -8.734915   1.000000
   17       -8.178066   1.000000
   18       -7.921295   1.000000
   19       -7.840199   1.000000
   20       -7.722755   1.000000
   21       -7.692969   1.000000
   22       -7.535596   1.000000
   23       -7.452127   1.000000
   24       -7.271469   1.000000
   25       -7.243248   1.000000
   26       -6.986825   1.000000
   27       -6.651619   1.000000
   28       -6.265978   1.000000
   29       -5.692581   1.000000
   30       -5.502680   1.000000
   31       -5.399983   1.000000
   32       -5.349655   1.000000
   33       -4.955157   1.000000
   34       -4.782163   1.000000
   35       -4.681931   1.000000
   36       -4.626627   1.000000
   37       -4.597176   1.000000
   38       -4.294574   1.000000
   39       -4.237949   1.000000
   40       -4.062025   1.000000
   41       -4.022139   1.000000
   42       -4.005397   1.000000
   43       -3.958970   1.000000
   44       -3.839190   1.000000
   45       -3.751548   1.000000
   46       -3.710052   1.000000
   47       -3.582142   1.000000
   48       -3.518523   1.000000
   49       -3.483501   1.000000
   50       -3.454427   1.000000
   51       -3.382595   1.000000
   52       -3.345205   1.000000
   53       -3.267722   1.000000
   54       -3.205752   1.000000
   55       -3.124998   1.000000
   56       -3.041316   1.000000
   57       -2.999698   1.000000
   58       -2.895122   1.000000
   59       -2.865507   1.000000
   60       -2.725788   1.000000
   61       -2.641961   1.000000
   62       -2.632596   1.000000
   63       -2.586296   1.000000
   64       -2.565911   1.000000
   65       -2.466561   1.000000
   66       -2.390562   1.000000
   67       -2.318930   1.000000
   68       -2.246156   1.000000
   69       -2.037694   1.000000
   70       -1.954241   1.000000
   71       -1.933966   1.000000
   72       -1.826422   1.000000
   73       -1.626870   1.000000
   74       -1.534534   1.000000
   75       -1.457046   1.000000
   76       -1.388351   1.000000
   77       -1.361674   1.000000
   78       -1.206359   1.000000
   79       -1.169930   1.000000
   80       -0.917856   1.000000
   81       -0.679755   1.000000
   82       -0.516299   1.000000
   83       -0.461350   1.000000
   84       -0.185491   1.000000
   85       -0.067519   1.000000
   86        0.116396   1.000000
   87        0.216968   1.000000
   88        0.270447   1.000000
   89        0.349852   1.000000
   90        0.423900   1.000000
   91        0.651465   1.025334
   92        0.658238   1.028393
   93        1.010704  -0.006977
   94        1.056114  -0.001181
   95        1.101843  -0.000121
   96        1.175428  -0.000001
   97        1.248311  -0.000000
   98        1.263515  -0.000000
   99        1.393524  -0.000000
  100        1.485338  -0.000000
  101        1.621456  -0.000000
  102        1.661809  -0.000000
  103        1.685064  -0.000000
  104        1.702359  -0.000000
  105        1.758342  -0.000000
  106        1.828734  -0.000000
  107        2.008935  -0.000000
  108        2.048026  -0.000000
  109        2.100362  -0.000000
  110        2.172965  -0.000000
  111        2.187973  -0.000000
  112        2.225285  -0.000000
  113        2.251142  -0.000000
  114        2.290133  -0.000000
  115        2.407430  -0.000000
  116        2.459554  -0.000000
  117        2.482551  -0.000000
  118        2.509129  -0.000000
  119        2.593545  -0.000000
  120        2.808867  -0.000000

  0.4444444E+00  0.3795814E-15  0.1235432E-14  0.2020202E-01
    1      -12.755964   1.000000
    2      -12.551192   1.000000
    3      -11.476722   1.000000
    4      -11.320005   1.000000
    5      -10.520180   1.000000
    6      -10.422622   1.000000
    7      -10.166103   1.000000
    8      -10.165149   1.000000
    9       -9.919959   1.000000
   10       -9.811082   1.000000
   11       -9.770137   1.000000
   12       -9.706828   1.000000
   13       -9.338398   1.000000
   14       -9.329146   1.000000
   15       -8.726636   1.000000
   16       -8.660144   1.000000
   17       -8.167957   1.000000
   18       -8.011927   1.000000
   19       -7.886793   1.000000
   20       -7.720697   1.000000
   21       -7.653443   1.000000
   22       -7.552278   1.000000
   23       -7.381478   1.000000
   24       -7.305617   1.000000
   25       -7.292051   1.000000
   26       -7.212287   1.000000
   27       -6.404396   1.000000
   28       -6.196555   1.000000
   29       -5.978163   1.000000
   30       -5.548886   1.000000
   31       -5.391947   1.000000
   32       -5.377047   1.000000
   33       -4.910328   1.000000
   34       -4.635796   1.000000
   35       -4.599836   1.000000
   36       -4.520013   1.000000
   37       -4.491002   1.000000
   38       -4.358123   1.000000
   39       -4.302154   1.000000
   40       -4.075888   1.000000
   41       -4.069850   1.000000
   42       -3.978691   1.000000
   43       -3.901987   1.000000
   44       -3.850713   1.000000
   45       -3.704455   1.000000
   46       -3.638925   1.000000
   47       -3.602521   1.000000
   48       -3.561441   1.000000
   49       -3.526649   1.000000
   50       -3.372184   1.000000
   51       -3.350060   1.000000
   52       -3.316160   1.000000
   53       -3.262367   1.000000
   54       -3.229435   1.000000
   55       -3.160049   1.000000
   56       -2.993781   1.000000
   57       -2.944280   1.000000
   58       -2.875612   1.000000
   59       -2.818016   1.000000
   60       -2.749269   1.000000
   61       -2.680675   1.000000
   62       -2.662824   1.000000
   63       -2.620324   1.000000
   64       -2.572349   1.000000
   65       -2.530382   1.000000
   66       -2.351518   1.000000
   67       -2.307404   1.000000
   68       -2.246145   1.000000
   69       -2.152022   1.000000
   70       -1.991012   1.000000
   71       -1.906806   1.000000
   72       -1.749571   1.000000
   73       -1.645803   1.000000
   74       -1.520812   1.000000
   75       -1.516509   1.000000
   76       -1.481552   1.000000
   77       -1.334831   1.000000
   78       -1.215711   1.000000
   79       -1.179820   1.000000
   80       -1.084710   1.000000
   81       -0.639957   1.000000
   82       -0.542855   1.000000
   83       -0.453893   1.000000
   84       -0.247746   1.000000
   85        0.039014   1.000000
   86        0.110181   1.000000
   87        0.217311   1.000000
   88        0.292031   1.000000
   89        0.412809   1.000000
   90        0.481704   1.000022
   91        0.540926   1.000560
   92        0.761408   0.842324
   93        0.910719  -0.028922
   94        1.073958  -0.000514
   95        1.098824  -0.000143
   96        1.148369  -0.000007
   97        1.212792  -0.000000
   98        1.338817  -0.000000
   99        1.445426  -0.000000
  100        1.495985  -0.000000
  101        1.644214  -0.000000
  102        1.670213  -0.000000
  103        1.700097  -0.000000
  104        1.753601  -0.000000
  105        1.830758  -0.000000
  106        1.933764  -0.000000
  107        2.001256  -0.000000
  108        2.110687  -0.000000
  109        2.130909  -0.000000
  110        2.221489  -0.000000
  111        2.244662  -0.000000
  112        2.280499  -0.000000
  113        2.303339  -0.000000
  114        2.340003  -0.000000
  115        2.393201  -0.000000
  116        2.429506  -0.000000
  117        2.487119  -0.000000
  118        2.619065  -0.000000
  119        2.657466  -0.000000
  120        2.872851  -0.000000

  0.3742002E-15  0.9090909E-01  0.1339361E-14  0.2020202E-01
    1      -13.110915   1.000000
    2      -11.772731   1.000000
    3      -11.707772   1.000000
    4      -11.246584   1.000000
    5      -10.593397   1.000000
    6      -10.415742   1.000000
    7      -10.379381   1.000000
    8      -10.360436   1.000000
    9      -10.124803   1.000000
   10       -9.789908   1.000000
   11       -9.704491   1.000000
   12       -9.480050   1.000000
   13       -9.320051   1.000000
   14       -9.295702   1.000000
   15       -8.876221   1.000000
   16       -8.838908   1.000000
   17       -8.258167   1.000000
   18       -7.911661   1.000000
   19       -7.878662   1.000000
   20       -7.765402   1.000000
   21       -7.714685   1.000000
   22       -7.233981   1.000000
   23       -7.127031   1.000000
   24       -7.054946   1.000000
   25       -6.981622   1.000000
   26       -6.946653   1.000000
   27       -6.473268   1.000000
   28       -6.301238   1.000000
   29       -5.686173   1.000000
   30       -5.557983   1.000000
   31       -5.460454   1.000000
   32       -5.340646   1.000000
   33       -5.057225   1.000000
   34       -4.898949   1.000000
   35       -4.731418   1.000000
   36       -4.646254   1.000000
   37       -4.480455   1.000000
   38       -4.383301   1.000000
   39       -4.371249   1.000000
   40       -4.232745   1.000000
   41       -4.167081   1.000000
   42       -4.087259   1.000000
   43       -4.039470   1.000000
   44       -3.893937   1.000000
   45       -3.859620   1.000000
   46       -3.818995   1.000000
   47       -3.746134   1.000000
   48       -3.664229   1.000000
   49       -3.604872   1.000000
   50       -3.552707   1.000000
   51       -3.525954   1.000000
   52       -3.369556   1.000000
   53       -3.267397   1.000000
   54       -3.208540   1.000000
   55       -3.157114   1.000000
   56       -3.066814   1.000000
   57       -2.939155   1.000000
   58       -2.913761   1.000000
   59       -2.841171   1.000000
   60       -2.705694   1.000000
   61       -2.612249   1.000000
   62       -2.587404   1.000000
   63       -2.532824   1.000000
   64       -2.412781   1.000000
   65       -2.390781   1.000000
   66       -2.352215   1.000000
   67       -2.266448   1.000000
   68       -2.211401   1.000000
   69       -2.135868   1.000000
   70       -2.024070   1.000000
   71       -2.005290   1.000000
   72       -1.783003   1.000000
   73       -1.521629   1.000000
   74       -1.338504   1.000000
   75       -1.317250   1.000000
   76       -1.260624   1.000000
   77       -1.184944   1.000000
   78       -1.130180   1.000000
   79       -1.016275   1.000000
   80       -0.968533   1.000000
   81       -0.696269   1.000000
   82       -0.442212   1.000000
   83       -0.371019   1.000000
   84       -0.223820   1.000000
   85       -0.076711   1.000000
   86       -0.032927   1.000000
   87        0.053217   1.000000
   88        0.077745   1.000000
   89        0.349941   1.000000
   90        0.481085   1.000021
   91        0.627649   1.014854
   92        0.804826   0.514678
   93        0.861711   0.102936
   94        0.890965  -0.000473
   95        0.974629  -0.019397
   96        1.093708  -0.000188
   97        1.180534  -0.000001
   98        1.270844  -0.000000
   99        1.317108  -0.000000
  100        1.415781  -0.000000
  101        1.489025  -0.000000
  102        1.582648  -0.000000
  103        1.623820  -0.000000
  104        1.648042  -0.000000
  105        1.767513  -0.000000
  106        1.847202  -0.000000
  107        1.942565  -0.000000
  108        1.982129  -0.000000
  109        2.033897  -0.000000
  110        2.062237  -0.000000
  111        2.126563  -0.000000
  112        2.148713  -0.000000
  113        2.202593  -0.000000
  114        2.228507  -0.000000
  115        2.323867  -0.000000
  116        2.428856  -0.000000
  117        2.517387  -0.000000
  118        2.586060  -0.000000
  119        2.742112  -0.000000
  120        5.387999   0.000000

  0.1111111E+00  0.9090909E-01  0.1250028E-14  0.2020202E-01
    1      -13.065502   1.000000
    2      -11.900917   1.000000
    3      -11.731844   1.000000
    4      -11.146544   1.000000
    5      -10.577978   1.000000
    6      -10.481092   1.000000
    7      -10.411633   1.000000
    8      -10.308855   1.000000
    9      -10.077051   1.000000
   10       -9.782258   1.000000
   11       -9.675236   1.000000
   12       -9.493079   1.000000
   13       -9.358838   1.000000
   14       -9.325383   1.000000
   15       -8.838122   1.000000
   16       -8.781837   1.000000
   17       -8.251213   1.000000
   18       -7.916687   1.000000
   19       -7.861015   1.000000
   20       -7.833138   1.000000
   21       -7.707357   1.000000
   22       -7.348010   1.000000
   23       -7.185587   1.000000
   24       -7.000845   1.000000
   25       -6.942937   1.000000
   26       -6.923253   1.000000
   27       -6.608118   1.000000
   28       -6.301903   1.000000
   29       -5.658112   1.000000
   30       -5.547328   1.000000
   31       -5.375045   1.000000
   32       -5.217828   1.000000
   33       -5.120204   1.000000
   34       -4.949193   1.000000
   35       -4.730791   1.000000
   36       -4.686645   1.000000
   37       -4.555323   1.000000
   38       -4.369049   1.000000
   39       -4.306988   1.000000
   40       -4.218390   1.000000
   41       -4.163910   1.000000
   42       -4.064202   1.000000
   43       -3.930867   1.000000
   44       -3.855901   1.000000
   45       -3.809170   1.000000
   46       -3.787861   1.000000
   47       -3.709318   1.000000
   48       -3.649891   1.000000
   49       -3.607020   1.000000
   50       -3.518306   1.000000
   51       -3.491467   1.000000
   52       -3.401859   1.000000
   53       -3.282378   1.000000
   54       -3.190278   1.000000
   55       -3.147203   1.000000
   56       -3.012274   1.000000
   57       -3.004882   1.000000
   58       -2.936231   1.000000
   59       -2.815476   1.000000
   60       -2.748535   1.000000
   61       -2.643784   1.000000
   62       -2.610588   1.000000
   63       -2.576828   1.000000
   64       -2.451227   1.000000
   65       -2.398031   1.000000
   66       -2.365993   1.000000
   67       -2.240189   1.000000
   68       -2.174099   1.000000
   69       -2.076320   1.000000
   70       -2.040780   1.000000
   71       -2.014093   1.000000
   72       -1.836480   1.000000
   73       -1.501263   1.000000
   74       -1.437107   1.000000
   75       -1.378855   1.000000
   76       -1.327706   1.000000
   77       -1.193720   1.000000
   78       -1.172249   1.000000
   79       -1.004641   1.000000
   80       -0.896679   1.000000
   81       -0.734417   1.000000
   82       -0.474950   1.000000
   83       -0.384133   1.000000
   84       -0.248551   1.000000
   85       -0.124694   1.000000
   86       -0.029445   1.000000
   87        0.152247   1.000000
   88        0.214131   1.000000
   89        0.328917   1.000000
   90        0.435152   1.000001
   91        0.601168   1.006690
   92        0.809102   0.478497
   93        0.861182   0.105584
   94        1.002334  -0.009142
   95        1.046584  -0.001787
   96        1.065764  -0.000760
   97        1.159603  -0.000004
   98        1.241674  -0.000000
   99        1.269425  -0.000000
  100        1.480106  -0.000000
  101        1.562081  -0.000000
  102        1.607429  -0.000000
  103        1.623116  -0.000000
  104        1.683955  -0.000000
  105        1.740490  -0.000000
  106        1.861967  -0.000000
  107        1.981934  -0.000000
  108        2.016114  -0.000000
  109        2.034887  -0.000000
  110        2.053748  -0.000000
  111        2.129543  -0.000000
  112        2.153453  -0.000000
  113        2.247493  -0.000000
  114        2.258908  -0.000000
  115        2.342156  -0.000000
  116        2.368280  -0.000000
  117        2.451886  -0.000000
  118        2.519510  -0.000000
  119        2.702726  -0.000000
  120        2.814139  -0.000000

  0.2222222E+00  0.9090909E-01  0.1327369E-14  0.2020202E-01
    1      -12.971479   1.000000
    2      -12.146908   1.000000
    3      -11.651271   1.000000
    4      -11.124497   1.000000
    5      -10.557960   1.000000
    6      -10.526967   1.000000
    7      -10.431507   1.000000
    8      -10.253028   1.000000
    9      -10.008297   1.000000
   10       -9.748675   1.000000
   11       -9.623979   1.000000
   12       -9.553535   1.000000
   13       -9.428050   1.000000
   14       -9.362590   1.000000
   15       -8.761863   1.000000
   16       -8.682079   1.000000
   17       -8.229635   1.000000
   18       -8.037867   1.000000
   19       -7.859860   1.000000
   20       -7.755968   1.000000
   21       -7.727032   1.000000
   22       -7.498707   1.000000
   23       -7.274941   1.000000
   24       -7.025587   1.000000
   25       -6.952491   1.000000
   26       -6.785051   1.000000
   27       -6.756601   1.000000
   28       -6.282593   1.000000
   29       -5.655531   1.000000
   30       -5.533723   1.000000
   31       -5.363155   1.000000
   32       -5.282044   1.000000
   33       -5.025647   1.000000
   34       -4.925772   1.000000
   35       -4.766385   1.000000
   36       -4.681396   1.000000
   37       -4.510537   1.000000
   38       -4.340205   1.000000
   39       -4.239538   1.000000
   40       -4.172213   1.000000
   41       -4.121306   1.000000
   42       -4.048106   1.000000
   43       -3.926785   1.000000
   44       -3.828748   1.000000
   45       -3.781383   1.000000
   46       -3.754118   1.000000
   47       -3.646966   1.000000
   48       -3.597383   1.000000