 running on   48 total cores
 distrk:  each k-point on   48 cores,    1 groups
 distr:  one band on    8 cores,    6 groups
 using from now: INCAR     
 vasp.5.4.4.18Apr17-6-g9f103f2a35 (build Dec  7 2020 12:43:57) complex           
 POSCAR found type information on POSCAR  Mo V  B  H 
 POSCAR found :  4 types and      49 ions
 scaLAPACK will be used

 ----------------------------------------------------------------------------- 
|                                                                             |
|  ADVICE TO THIS USER RUNNING 'VASP/VAMP'   (HEAR YOUR MASTER'S VOICE ...):  |
|                                                                             |
|      You enforced a specific xc-type in the INCAR file,                     |
|      a different type was found on the POTCAR file                          |
|          I HOPE YOU KNOW, WHAT YOU ARE  DOING                               |
|                                                                             |
 ----------------------------------------------------------------------------- 

 LDA part: xc-table for Pade appr. of Perdew
 POSCAR, INCAR and KPOINTS ok, starting setup
 resort distribution
 resort distribution
 resort distribution
 resort distribution
 resort distribution
 resort distribution
 resort distribution
 resort distribution
 resort distribution
 resort distribution
 resort distribution
 resort distribution
 resort distribution
 resort distribution
 resort distribution
 resort distribution
 resort distribution
 resort distribution
 resort distribution
 resort distribution
 resort distribution
 resort distribution
 resort distribution
 resort distribution
 resort distribution
 resort distribution
 resort distribution
 resort distribution
 resort distribution
 resort distribution
 resort distribution
 resort distribution
 resort distribution
 resort distribution
 resort distribution
 resort distribution
 resort distribution
 resort distribution
 resort distribution
 resort distribution
 resort distribution
 resort distribution
 resort distribution
 resort distribution
 resort distribution
 resort distribution
 resort distribution
 resort distribution
 FFT: planning ...
 WAVECAR not read
 augmentation electrons   185.00417315164282     
 soft         electrons   0.0000000000000000     
 augmentation electrons   185.00417315164282     
 soft         electrons   0.0000000000000000     
 augmentation electrons   185.00417315164282     
 soft         electrons   0.0000000000000000     
 augmentation electrons   185.00417315164282     
 soft         electrons   0.0000000000000000     
 augmentation electrons   185.00417315164282     
 soft         electrons   0.0000000000000000     
 augmentation electrons   185.00417315164282     
 soft         electrons   0.0000000000000000     
 augmentation electrons   185.00417315164282     
 soft         electrons   0.0000000000000000     
 augmentation electrons   185.00417315164282     
 soft         electrons   0.0000000000000000     
 augmentation electrons   185.00417315164282     
 soft         electrons   0.0000000000000000     
 augmentation electrons   185.00417315164282     
 soft         electrons   0.0000000000000000     
 augmentation electrons   185.00417315164282     
 soft         electrons   0.0000000000000000     
 augmentation electrons   185.00417315164282     
 soft         electrons   0.0000000000000000     
 augmentation electrons   185.00417315164282     
 soft         electrons   0.0000000000000000     
 augmentation electrons   185.00417315164282     
 soft         electrons   0.0000000000000000     
 augmentation electrons   185.00417315164282     
 soft         electrons   0.0000000000000000     
 augmentation electrons   185.00417315164282     
 soft         electrons   0.0000000000000000     
 augmentation electrons   185.00417315164282     
 soft         electrons   0.0000000000000000     
 augmentation electrons   185.00417315164282     
 soft         electrons   0.0000000000000000     
 augmentation electrons   185.00417315164282     
 soft         electrons   0.0000000000000000     
 augmentation electrons   185.00417315164282     
 soft         electrons   0.0000000000000000     
 augmentation electrons   185.00417315164282     
 soft         electrons   0.0000000000000000     
 augmentation electrons   185.00417315164282     
 soft         electrons   0.0000000000000000     
 augmentation electrons   185.00417315164282     
 soft         electrons   0.0000000000000000     
 augmentation electrons   185.00417315164282     
 soft         electrons   0.0000000000000000     
 augmentation electrons   185.00417315164282     
 soft         electrons   0.0000000000000000     
 augmentation electrons   185.00417315164282     
 soft         electrons   0.0000000000000000     
 augmentation electrons   185.00417315164282     
 soft         electrons   0.0000000000000000     
 augmentation electrons   185.00417315164282     
 soft         electrons   0.0000000000000000     
 augmentation electrons   185.00417315164282     
 soft         electrons   0.0000000000000000     
 augmentation electrons   185.00417315164282     
 soft         electrons   0.0000000000000000     
 augmentation electrons   185.00417315164282     
 soft         electrons   0.0000000000000000     
 augmentation electrons   185.00417315164282     
 soft         electrons   0.0000000000000000     
 augmentation electrons   185.00417315164282     
 soft         electrons   0.0000000000000000     
 augmentation electrons   185.00417315164282     
 soft         electrons   0.0000000000000000     
 augmentation electrons   185.00417315164282     
 soft         electrons   0.0000000000000000     
 augmentation electrons   185.00417315164282     
 soft         electrons   0.0000000000000000     
 augmentation electrons   185.00417315164282     
 soft         electrons   0.0000000000000000     
 augmentation electrons   185.00417315164282     
 soft         electrons   0.0000000000000000     
 augmentation electrons   185.00417315164282     
 soft         electrons   0.0000000000000000     
 augmentation electrons   185.00417315164282     
 soft         electrons   0.0000000000000000     
 augmentation electrons   185.00417315164282     
 soft         electrons   0.0000000000000000     
 augmentation electrons   185.00417315164282     
 soft         electrons   0.0000000000000000     
 augmentation electrons   185.00417315164282     
 soft         electrons   0.0000000000000000     
 augmentation electrons   185.00417315164282     
 soft         electrons   0.0000000000000000     
 augmentation electrons   185.00417315164282     
 soft         electrons   0.0000000000000000     
 augmentation electrons   185.00417315164282     
 soft         electrons   0.0000000000000000     
 augmentation electrons   185.00417315164282     
 soft         electrons   0.0000000000000000     
 augmentation electrons   185.00417315164282     
 soft         electrons   0.0000000000000000     
 total        electrons   185.00417315164282     
 total        electrons   185.00417315164282     
 total        electrons   185.00417315164282     
 total        electrons   185.00417315164282     
 total        electrons   185.00417315164282     
 total        electrons   185.00417315164282     
 total        electrons   185.00417315164282     
 total        electrons   185.00417315164282     
 total        electrons   185.00417315164282     
 total        electrons   185.00417315164282     
 total        electrons   185.00417315164282     
 total        electrons   185.00417315164282     
 total        electrons   185.00417315164282     
 total        electrons   185.00417315164282     
 total        electrons   185.00417315164282     
 total        electrons   185.00417315164282     
 total        electrons   185.00417315164282     
 total        electrons   185.00417315164282     
 total        electrons   185.00417315164282     
 total        electrons   185.00417315164282     
 total        electrons   185.00417315164282     
 total        electrons   185.00417315164282     
 total        electrons   185.00417315164282     
 total        electrons   185.00417315164282     
 total        electrons   185.00417315164282     
 total        electrons   185.00417315164282     
 total        electrons   185.00417315164282     
 total        electrons   185.00417315164282     
 total        electrons   185.00417315164282     
 total        electrons   185.00417315164282     
 total        electrons   185.00417315164282     
 total        electrons   185.00417315164282     
 total        electrons   185.00417315164282     
 total        electrons   185.00417315164282     
 total        electrons   185.00417315164282     
 total        electrons   185.00417315164282     
 total        electrons   185.00417315164282     
 total        electrons   185.00417315164282     
 total        electrons   185.00417315164282     
 total        electrons   185.00417315164282     
 total        electrons   185.00417315164282     
 total        electrons   185.00417315164282     
 total        electrons   185.00417315164282     
 total        electrons   185.00417315164282     
 total        electrons   185.00417315164282     
 total        electrons   185.00417315164282     
 total        electrons   185.00417315164282     
 total        electrons   185.00417315164282     
 augmentation electrons   484.16204223098771     
 soft         electrons   0.0000000000000000     
 augmentation electrons   484.16204223098771     
 soft         electrons   0.0000000000000000     
 augmentation electrons   484.16204223098771     
 augmentation electrons   484.16204223098771     
 soft         electrons   0.0000000000000000     
 augmentation electrons   484.16204223098771     
 soft         electrons   0.0000000000000000     
 augmentation electrons   484.16204223098771     
 soft         electrons   0.0000000000000000     
 augmentation electrons   484.16204223098771     
 soft         electrons   0.0000000000000000     
 augmentation electrons   484.16204223098771     
 soft         electrons   0.0000000000000000     
 augmentation electrons   484.16204223098771     
 soft         electrons   0.0000000000000000     
 augmentation electrons   484.16204223098771     
 soft         electrons   0.0000000000000000     
 augmentation electrons   484.16204223098771     
 soft         electrons   0.0000000000000000     
 augmentation electrons   484.16204223098771     
 soft         electrons   0.0000000000000000     
 augmentation electrons   484.16204223098771     
 soft         electrons   0.0000000000000000     
 augmentation electrons   484.16204223098771     
 soft         electrons   0.0000000000000000     
 augmentation electrons   484.16204223098771     
 soft         electrons   0.0000000000000000     
 augmentation electrons   484.16204223098771     
 soft         electrons   0.0000000000000000     
 augmentation electrons   484.16204223098771     
 soft         electrons   0.0000000000000000     
 augmentation electrons   484.16204223098771     
 soft         electrons   0.0000000000000000     
 augmentation electrons   484.16204223098771     
 soft         electrons   0.0000000000000000     
 augmentation electrons   484.16204223098771     
 soft         electrons   0.0000000000000000     
 augmentation electrons   484.16204223098771     
 soft         electrons   0.0000000000000000     
 augmentation electrons   484.16204223098771     
 soft         electrons   0.0000000000000000     
 augmentation electrons   484.16204223098771     
 soft         electrons   0.0000000000000000     
 augmentation electrons   484.16204223098771     
 soft         electrons   0.0000000000000000     
 augmentation electrons   484.16204223098771     
 soft         electrons   0.0000000000000000     
 augmentation electrons   484.16204223098771     
 soft         electrons   0.0000000000000000     
 augmentation electrons   484.16204223098771     
 soft         electrons   0.0000000000000000     
 augmentation electrons   484.16204223098771     
 soft         electrons   0.0000000000000000     
 augmentation electrons   484.16204223098771     
 soft         electrons   0.0000000000000000     
 augmentation electrons   484.16204223098771     
 soft         electrons   0.0000000000000000     
 augmentation electrons   484.16204223098771     
 soft         electrons   0.0000000000000000     
 augmentation electrons   484.16204223098771     
 soft         electrons   0.0000000000000000     
 augmentation electrons   484.16204223098771     
 soft         electrons   0.0000000000000000     
 augmentation electrons   484.16204223098771     
 soft         electrons   0.0000000000000000     
 augmentation electrons   484.16204223098771     
 soft         electrons   0.0000000000000000     
 augmentation electrons   484.16204223098771     
 soft         electrons   0.0000000000000000     
 augmentation electrons   484.16204223098771     
 soft         electrons   0.0000000000000000     
 augmentation electrons   484.16204223098771     
 soft         electrons   0.0000000000000000     
 augmentation electrons   484.16204223098771     
 soft         electrons   0.0000000000000000     
 augmentation electrons   484.16204223098771     
 soft         electrons   0.0000000000000000     
 augmentation electrons   484.16204223098771     
 soft         electrons   0.0000000000000000     
 augmentation electrons   484.16204223098771     
 soft         electrons   0.0000000000000000     
 augmentation electrons   484.16204223098771     
 soft         electrons   0.0000000000000000     
 augmentation electrons   484.16204223098771     
 soft         electrons   0.0000000000000000     
 augmentation electrons   484.16204223098771     
 soft         electrons   0.0000000000000000     
 augmentation electrons   484.16204223098771     
 soft         electrons   0.0000000000000000     
 augmentation electrons   484.16204223098771     
 soft         electrons   0.0000000000000000     
 augmentation electrons   484.16204223098771     
 soft         electrons   0.0000000000000000     
 soft         electrons   0.0000000000000000     
 total        electrons   484.16204223098771     
 total        electrons   484.16204223098771     
 total        electrons   484.16204223098771     
 total        electrons   484.16204223098771     
 total        electrons   484.16204223098771     
 total        electrons   484.16204223098771     
 total        electrons   484.16204223098771     
 total        electrons   484.16204223098771     
 total        electrons   484.16204223098771     
 total        electrons   484.16204223098771     
 total        electrons   484.16204223098771     
 total        electrons   484.16204223098771     
 total        electrons   484.16204223098771     
 total        electrons   484.16204223098771     
 total        electrons   484.16204223098771     
 total        electrons   484.16204223098771     
 total        electrons   484.16204223098771     
 total        electrons   484.16204223098771     
 total        electrons   484.16204223098771     
 total        electrons   484.16204223098771     
 total        electrons   484.16204223098771     
 total        electrons   484.16204223098771     
 total        electrons   484.16204223098771     
 total        electrons   484.16204223098771     
 total        electrons   484.16204223098771     
 total        electrons   484.16204223098771     
 total        electrons   484.16204223098771     
 total        electrons   484.16204223098771     
 total        electrons   484.16204223098771     
 total        electrons   484.16204223098771     
 total        electrons   484.16204223098771     
 total        electrons   484.16204223098771     
 total        electrons   484.16204223098771     
 total        electrons   484.16204223098771     
 total        electrons   484.16204223098771     
 total        electrons   484.16204223098771     
 total        electrons   484.16204223098771     
 total        electrons   484.16204223098771     
 total        electrons   484.16204223098771     
 total        electrons   484.16204223098771     
 total        electrons   484.16204223098771     
 total        electrons   484.16204223098771     
 total        electrons   484.16204223098771     
 total        electrons   484.16204223098771     
 total        electrons   484.16204223098771     
 total        electrons   484.16204223098771     
 total        electrons   484.16204223098771     
 total        electrons   484.16204223098771     
 entering main loop
       N       E                     dE             d eps       ncg     rms          rms(c)
DAV:   1     0.195747512227E+04    0.19575E+04   -0.63823E+04 12000   0.130E+03
DAV:   2     0.254880867587E+02   -0.19320E+04   -0.17946E+04 12804   0.334E+02
DAV:   3    -0.416989543490E+03   -0.44248E+03   -0.42795E+03 18144   0.186E+02
DAV:   4    -0.453919472714E+03   -0.36930E+02   -0.35890E+02 19800   0.606E+01
DAV:   5    -0.455416400457E+03   -0.14969E+01   -0.14512E+01 20280   0.129E+01    0.107E+02
RMM:   6    -0.420632308279E+03    0.34784E+02   -0.10170E+03 16618   0.111E+02    0.576E+01
RMM:   7    -0.426896158906E+03   -0.62639E+01   -0.51475E+02 14125   0.102E+02    0.451E+01
RMM:   8    -0.377383220050E+03    0.49513E+02   -0.59016E+01 12884   0.328E+01    0.170E+01
RMM:   9    -0.374954390290E+03    0.24288E+01   -0.21259E+01 15904   0.156E+01    0.135E+01
RMM:  10    -0.375554744168E+03   -0.60035E+00   -0.58030E+00 18290   0.512E+00    0.127E+01
RMM:  11    -0.375342970940E+03    0.21177E+00   -0.93587E-01 15364   0.332E+00    0.111E+01
RMM:  12    -0.375103820967E+03    0.23915E+00   -0.26987E+00 14103   0.656E+00    0.906E+00
RMM:  13    -0.375085907679E+03    0.17913E-01   -0.59836E+00 14868   0.892E+00    0.578E+00
RMM:  14    -0.374541933304E+03    0.54397E+00   -0.10968E+00 15436   0.353E+00    0.302E+00
RMM:  15    -0.374428939313E+03    0.11299E+00   -0.29790E-01 16210   0.162E+00    0.155E+00
RMM:  16    -0.374387020620E+03    0.41919E-01   -0.15475E-01 18300   0.925E-01    0.899E-01
RMM:  17    -0.374386053965E+03    0.96665E-03   -0.95795E-02 16016   0.111E+00    0.124E+00
RMM:  18    -0.374387460555E+03   -0.14066E-02   -0.58431E-02 14254   0.896E-01    0.137E+00
RMM:  19    -0.374369436866E+03    0.18024E-01   -0.22267E-02 16845   0.448E-01    0.104E+00
RMM:  20    -0.374348295477E+03    0.21141E-01   -0.41885E-02 16918   0.639E-01    0.424E-01
RMM:  21    -0.374347455154E+03    0.84032E-03   -0.49094E-02 18706   0.440E-01    0.437E-01
RMM:  22    -0.374344724547E+03    0.27306E-02   -0.11897E-02 18727   0.221E-01    0.370E-01
RMM:  23    -0.374342205693E+03    0.25189E-02   -0.21727E-03 17677   0.113E-01    0.341E-01
RMM:  24    -0.374340591322E+03    0.16144E-02   -0.22055E-03 17019   0.146E-01    0.280E-01
RMM:  25    -0.374339689417E+03    0.90191E-03   -0.27816E-03 18044   0.140E-01    0.152E-01
RMM:  26    -0.374339824978E+03   -0.13556E-03   -0.92673E-04 19071   0.678E-02    0.897E-02
RMM:  27    -0.374340060700E+03   -0.23572E-03   -0.80808E-04 17237   0.824E-02    0.477E-02
RMM:  28    -0.374340229473E+03   -0.16877E-03   -0.35265E-04 18044   0.423E-02    0.478E-02
RMM:  29    -0.374340547002E+03   -0.31753E-03   -0.14165E-04 18002   0.299E-02    0.400E-02
RMM:  30    -0.374341056275E+03   -0.50927E-03   -0.16654E-04 16992   0.369E-02    0.214E-02
RMM:  31    -0.374341410514E+03   -0.35424E-03   -0.60346E-05 14478   0.241E-02    0.193E-02
RMM:  32    -0.374341706013E+03   -0.29550E-03   -0.58594E-05 17834   0.182E-02    0.243E-02
RMM:  33    -0.374341928200E+03   -0.22219E-03   -0.40389E-05 14223   0.182E-02    0.690E-03
RMM:  34    -0.374342055884E+03   -0.12768E-03   -0.27518E-05 13523   0.790E-03    0.401E-03
RMM:  35    -0.374342096729E+03   -0.40845E-04   -0.64057E-06 11530   0.787E-03    0.410E-03
RMM:  36    -0.374342112806E+03   -0.16076E-04   -0.27637E-06 10382   0.399E-03    0.284E-03
RMM:  37    -0.374342117603E+03   -0.47973E-05   -0.83410E-07  9072   0.338E-03    0.181E-03
RMM:  38    -0.374342119450E+03   -0.18472E-05   -0.51010E-07  8367   0.233E-03    0.140E-03
RMM:  39    -0.374342120566E+03   -0.11155E-05   -0.26224E-07  7947   0.208E-03    0.108E-03
RMM:  40    -0.374342120888E+03   -0.32273E-06   -0.14152E-07  6456   0.110E-03
   1 F= -.37434212E+03 E0= -.37434410E+03  d E =0.593499E-02
 augmentation electrons   23.694440474953925     
 soft         electrons   161.35593655686989     
 augmentation electrons   23.694440474953925     
 soft         electrons   161.35593655686989     
 augmentation electrons   23.694440474953925     
 soft         electrons   161.35593655686989     
 augmentation electrons   23.694440474953925     
 soft         electrons   161.35593655686989     
 augmentation electrons   23.694440474953925     
 soft         electrons   161.35593655686989     
 augmentation electrons   23.694440474953925     
 soft         electrons   161.35593655686989     
 augmentation electrons   23.694440474953925     
 soft         electrons   161.35593655686989     
 augmentation electrons   23.694440474953925     
 soft         electrons   161.35593655686989     
 augmentation electrons   23.694440474953925     
 soft         electrons   161.35593655686989     
 augmentation electrons   23.694440474953925     
 soft         electrons   161.35593655686989     
 augmentation electrons   23.694440474953925     
 soft         electrons   161.35593655686989     
 augmentation electrons   23.694440474953925     
 soft         electrons   161.35593655686989     
 augmentation electrons   23.694440474953925     
 soft         electrons   161.35593655686989     
 augmentation electrons   23.694440474953925     
 soft         electrons   161.35593655686989     
 augmentation electrons   23.694440474953925     
 soft         electrons   161.35593655686989     
 augmentation electrons   23.694440474953925     
 soft         electrons   161.35593655686989     
 augmentation electrons   23.694440474953925     
 soft         electrons   161.35593655686989     
 augmentation electrons   23.694440474953925     
 soft         electrons   161.35593655686989     
 augmentation electrons   23.694440474953925     
 soft         electrons   161.35593655686989     
 augmentation electrons   23.694440474953925     
 soft         electrons   161.35593655686989     
 augmentation electrons   23.694440474953925     
 soft         electrons   161.35593655686989     
 augmentation electrons   23.694440474953925     
 soft         electrons   161.35593655686989     
 augmentation electrons   23.694440474953925     
 soft         electrons   161.35593655686989     
 augmentation electrons   23.694440474953925     
 soft         electrons   161.35593655686989     
 augmentation electrons   23.694440474953925     
 soft         electrons   161.35593655686989     
 augmentation electrons   23.694440474953925     
 soft         electrons   161.35593655686989     
 augmentation electrons   23.694440474953925     
 soft         electrons   161.35593655686989     
 augmentation electrons   23.694440474953925     
 soft         electrons   161.35593655686989     
 augmentation electrons   23.694440474953925     
 soft         electrons   161.35593655686989     
 augmentation electrons   23.694440474953925     
 soft         electrons   161.35593655686989     
 augmentation electrons   23.694440474953925     
 soft         electrons   161.35593655686989     
 augmentation electrons   23.694440474953925     
 soft         electrons   161.35593655686989     
 augmentation electrons   23.694440474953925     
 soft         electrons   161.35593655686989     
 augmentation electrons   23.694440474953925     
 soft         electrons   161.35593655686989     
 augmentation electrons   23.694440474953925     
 soft         electrons   161.35593655686989     
 augmentation electrons   23.694440474953925     
 soft         electrons   161.35593655686989     
 augmentation electrons   23.694440474953925     
 soft         electrons   161.35593655686989     
 augmentation electrons   23.694440474953925     
 soft         electrons   161.35593655686989     
 augmentation electrons   23.694440474953925     
 soft         electrons   161.35593655686989     
 augmentation electrons   23.694440474953925     
 soft         electrons   161.35593655686989     
 augmentation electrons   23.694440474953925     
 soft         electrons   161.35593655686989     
 augmentation electrons   23.694440474953925     
 soft         electrons   161.35593655686989     
 augmentation electrons   23.694440474953925     
 soft         electrons   161.35593655686989     
 augmentation electrons   23.694440474953925     
 soft         electrons   161.35593655686989     
 augmentation electrons   23.694440474953925     
 soft         electrons   161.35593655686989     
 augmentation electrons   23.694440474953925     
 soft         electrons   161.35593655686989     
 augmentation electrons   23.694440474953925     
 soft         electrons   161.35593655686989     
 augmentation electrons   23.694440474953925     
 soft         electrons   161.35593655686989     
 total        electrons   185.05037703182381     
 total        electrons   185.05037703182381     
 total        electrons   185.05037703182381     
 total        electrons   185.05037703182381     
 total        electrons   185.05037703182381     
 total        electrons   185.05037703182381     
 total        electrons   185.05037703182381     
 total        electrons   185.05037703182381     
 total        electrons   185.05037703182381     
 total        electrons   185.05037703182381     
 total        electrons   185.05037703182381     
 total        electrons   185.05037703182381     
 total        electrons   185.05037703182381     
 total        electrons   185.05037703182381     
 total        electrons   185.05037703182381     
 total        electrons   185.05037703182381     
 total        electrons   185.05037703182381     
 total        electrons   185.05037703182381     
 total        electrons   185.05037703182381     
 total        electrons   185.05037703182381     
 total        electrons   185.05037703182381     
 total        electrons   185.05037703182381     
 total        electrons   185.05037703182381     
 total        electrons   185.05037703182381     
 total        electrons   185.05037703182381     
 total        electrons   185.05037703182381     
 total        electrons   185.05037703182381     
 total        electrons   185.05037703182381     
 total        electrons   185.05037703182381     
 total        electrons   185.05037703182381     
 total        electrons   185.05037703182381     
 total        electrons   185.05037703182381     
 total        electrons   185.05037703182381     
 total        electrons   185.05037703182381     
 total        electrons   185.05037703182381     
 total        electrons   185.05037703182381     
 total        electrons   185.05037703182381     
 total        electrons   185.05037703182381     
 total        electrons   185.05037703182381     
 total        electrons   185.05037703182381     
 total        electrons   185.05037703182381     
 total        electrons   185.05037703182381     
 total        electrons   185.05037703182381     
 total        electrons   185.05037703182381     
 total        electrons   185.05037703182381     
 total        electrons   185.05037703182381     
 total        electrons   185.05037703182381     
 total        electrons   185.05037703182381     
Note: The following floating-point exceptions are signalling: IEEE_OVERFLOW_FLAG
Note: The following floating-point exceptions are signalling: IEEE_OVERFLOW_FLAG
Note: The following floating-point exceptions are signalling: IEEE_OVERFLOW_FLAG
Note: The following floating-point exceptions are signalling: IEEE_OVERFLOW_FLAG
Note: The following floating-point exceptions are signalling: IEEE_OVERFLOW_FLAG
Note: The following floating-point exceptions are signalling: IEEE_OVERFLOW_FLAG
Note: The following floating-point exceptions are signalling: IEEE_OVERFLOW_FLAG
Note: The following floating-point exceptions are signalling: IEEE_OVERFLOW_FLAG
Note: The following floating-point exceptions are signalling: IEEE_OVERFLOW_FLAG
Note: The following floating-point exceptions are signalling: IEEE_OVERFLOW_FLAG
Note: The following floating-point exceptions are signalling: IEEE_OVERFLOW_FLAG
Note: The following floating-point exceptions are signalling: IEEE_OVERFLOW_FLAG
Note: The following floating-point exceptions are signalling: IEEE_OVERFLOW_FLAG
Note: The following floating-point exceptions are signalling: IEEE_OVERFLOW_FLAG
Note: The following floating-point exceptions are signalling: IEEE_OVERFLOW_FLAG
Note: The following floating-point exceptions are signalling: IEEE_OVERFLOW_FLAG
Note: The following floating-point exceptions are signalling: IEEE_OVERFLOW_FLAG
Note: The following floating-point exceptions are signalling: IEEE_OVERFLOW_FLAG
Note: The following floating-point exceptions are signalling: IEEE_OVERFLOW_FLAG
Note: The following floating-point exceptions are signalling: IEEE_OVERFLOW_FLAG
Note: The following floating-point exceptions are signalling: IEEE_OVERFLOW_FLAG
Note: The following floating-point exceptions are signalling: IEEE_OVERFLOW_FLAG
Note: The following floating-point exceptions are signalling: IEEE_OVERFLOW_FLAG
Note: The following floating-point exceptions are signalling: IEEE_OVERFLOW_FLAG
Note: The following floating-point exceptions are signalling: IEEE_OVERFLOW_FLAG
Note: The following floating-point exceptions are signalling: IEEE_OVERFLOW_FLAG
Note: The following floating-point exceptions are signalling: IEEE_OVERFLOW_FLAG
Note: The following floating-point exceptions are signalling: IEEE_OVERFLOW_FLAG
Note: The following floating-point exceptions are signalling: IEEE_OVERFLOW_FLAG
Note: The following floating-point exceptions are signalling: IEEE_OVERFLOW_FLAG
Note: The following floating-point exceptions are signalling: IEEE_OVERFLOW_FLAG
Note: The following floating-point exceptions are signalling: IEEE_OVERFLOW_FLAG
Note: The following floating-point exceptions are signalling: IEEE_OVERFLOW_FLAG
Note: The following floating-point exceptions are signalling: IEEE_OVERFLOW_FLAG
Note: The following floating-point exceptions are signalling: IEEE_OVERFLOW_FLAG
Note: The following floating-point exceptions are signalling: IEEE_OVERFLOW_FLAG
Note: The following floating-point exceptions are signalling: IEEE_OVERFLOW_FLAG
Note: The following floating-point exceptions are signalling: IEEE_OVERFLOW_FLAG
Note: The following floating-point exceptions are signalling: IEEE_OVERFLOW_FLAG
Note: The following floating-point exceptions are signalling: IEEE_OVERFLOW_FLAG
Note: The following floating-point exceptions are signalling: IEEE_OVERFLOW_FLAG
Note: The following floating-point exceptions are signalling: IEEE_OVERFLOW_FLAG
Note: The following floating-point exceptions are signalling: IEEE_OVERFLOW_FLAG
Note: The following floating-point exceptions are signalling: IEEE_OVERFLOW_FLAG
Note: The following floating-point exceptions are signalling: IEEE_OVERFLOW_FLAG
Note: The following floating-point exceptions are signalling: IEEE_OVERFLOW_FLAG
Note: The following floating-point exceptions are signalling: IEEE_OVERFLOW_FLAG
Note: The following floating-point exceptions are signalling: IEEE_OVERFLOW_FLAG
