   49   49   85    1
  0.2411350E+02  0.8645320E-09  0.6085000E-09  0.2593596E-08  0.5000000E-15
   1.0000000000000000E-004
  CAR 
 Name                                    
    189    149    120

  0.3742002E-15  0.3742002E-15  0.3742002E-15  0.3367003E-02
    1      -14.072293   1.000000
    2      -12.684565   1.000000
    3      -12.585184   1.000000
    4      -12.034549   1.000000
    5      -11.610810   1.000000
    6      -11.274543   1.000000
    7      -11.266651   1.000000
    8      -11.225080   1.000000
    9      -11.086519   1.000000
   10      -10.803340   1.000000
   11      -10.798685   1.000000
   12      -10.436203   1.000000
   13      -10.258690   1.000000
   14      -10.244890   1.000000
   15       -9.859820   1.000000
   16       -9.839021   1.000000
   17       -9.252286   1.000000
   18       -9.001670   1.000000
   19       -8.954510   1.000000
   20       -8.641611   1.000000
   21       -8.622832   1.000000
   22       -8.481511   1.000000
   23       -8.289554   1.000000
   24       -8.193153   1.000000
   25       -8.121189   1.000000
   26       -8.086185   1.000000
   27       -7.469539   1.000000
   28       -7.395286   1.000000
   29       -6.726431   1.000000
   30       -6.674402   1.000000
   31       -6.572373   1.000000
   32       -6.376495   1.000000
   33       -6.181778   1.000000
   34       -6.094484   1.000000
   35       -5.784132   1.000000
   36       -5.674476   1.000000
   37       -5.649944   1.000000
   38       -5.626516   1.000000
   39       -5.372021   1.000000
   40       -5.360185   1.000000
   41       -5.270235   1.000000
   42       -5.201805   1.000000
   43       -5.124139   1.000000
   44       -5.008943   1.000000
   45       -4.968589   1.000000
   46       -4.909205   1.000000
   47       -4.764856   1.000000
   48       -4.746442   1.000000
   49       -4.704516   1.000000
   50       -4.672914   1.000000
   51       -4.631179   1.000000
   52       -4.530839   1.000000
   53       -4.506678   1.000000
   54       -4.335454   1.000000
   55       -4.302368   1.000000
   56       -4.201906   1.000000
   57       -4.181854   1.000000
   58       -4.132645   1.000000
   59       -4.057813   1.000000
   60       -3.953097   1.000000
   61       -3.702849   1.000000
   62       -3.599293   1.000000
   63       -3.567074   1.000000
   64       -3.537397   1.000000
   65       -3.503149   1.000000
   66       -3.477738   1.000000
   67       -3.420106   1.000000
   68       -3.380843   1.000000
   69       -3.347182   1.000000
   70       -3.227329   1.000000
   71       -3.202960   1.000000
   72       -2.845220   1.000000
   73       -2.745892   1.000000
   74       -2.623579   1.000000
   75       -2.528744   1.000000
   76       -2.451568   1.000000
   77       -2.392731   1.000000
   78       -2.293348   1.000000
   79       -2.223439   1.000000
   80       -2.104197   1.000000
   81       -1.886036   1.000000
   82       -1.678046   1.000000
   83       -1.532852   1.000000
   84       -1.303659   1.000000
   85       -1.246672   1.000000
   86       -1.139282   1.000000
   87       -1.071492   1.000000
   88       -1.019098   1.000000
   89       -0.851430   1.000000
   90       -0.486559   1.000000
   91       -0.360134   1.000093
   92       -0.154002   1.017731
   93       -0.086455   0.715431
   94       -0.028635   0.248484
   95        0.086937  -0.028993
   96        0.107343  -0.019719
   97        0.127323  -0.011780
   98        0.367322  -0.000000
   99        0.440196  -0.000000
  100        0.501296  -0.000000
  101        0.568426  -0.000000
  102        0.672273  -0.000000
  103        0.680993  -0.000000
  104        0.707211  -0.000000
  105        0.793441  -0.000000
  106        0.996969  -0.000000
  107        1.143312  -0.000000
  108        1.188415  -0.000000
  109        1.215952  -0.000000
  110        1.312769  -0.000000
  111        1.320924  -0.000000
  112        1.351936  -0.000000
  113        1.408542  -0.000000
  114        1.451078  -0.000000
  115        1.544781  -0.000000
  116        1.603425  -0.000000
  117        1.621806  -0.000000
  118        1.764080  -0.000000
  119        1.778046  -0.000000
  120        1.824148  -0.000000

  0.1111111E+00  0.3729374E-15  0.3860503E-15  0.6734007E-02
    1      -14.045320   1.000000
    2      -12.701072   1.000000
    3      -12.658001   1.000000
    4      -11.977283   1.000000
    5      -11.596808   1.000000
    6      -11.274332   1.000000
    7      -11.257875   1.000000
    8      -11.211321   1.000000
    9      -11.126685   1.000000
   10      -10.798935   1.000000
   11      -10.794203   1.000000
   12      -10.447222   1.000000
   13      -10.256134   1.000000
   14      -10.241231   1.000000
   15       -9.849586   1.000000
   16       -9.826602   1.000000
   17       -9.242730   1.000000
   18       -8.994905   1.000000
   19       -8.956130   1.000000
   20       -8.646625   1.000000
   21       -8.634408   1.000000
   22       -8.514307   1.000000
   23       -8.345953   1.000000
   24       -8.182807   1.000000
   25       -8.125861   1.000000
   26       -8.100476   1.000000
   27       -7.561668   1.000000
   28       -7.390558   1.000000
   29       -6.693893   1.000000
   30       -6.633497   1.000000
   31       -6.515669   1.000000
   32       -6.327080   1.000000
   33       -6.174884   1.000000
   34       -6.102613   1.000000
   35       -5.778480   1.000000
   36       -5.730545   1.000000
   37       -5.596036   1.000000
   38       -5.559958   1.000000
   39       -5.469190   1.000000
   40       -5.341924   1.000000
   41       -5.242746   1.000000
   42       -5.185866   1.000000
   43       -5.154237   1.000000
   44       -4.962926   1.000000
   45       -4.920499   1.000000
   46       -4.882793   1.000000
   47       -4.804571   1.000000
   48       -4.745213   1.000000
   49       -4.688163   1.000000
   50       -4.649630   1.000000
   51       -4.582824   1.000000
   52       -4.517191   1.000000
   53       -4.485669   1.000000
   54       -4.374161   1.000000
   55       -4.299021   1.000000
   56       -4.216079   1.000000
   57       -4.198931   1.000000
   58       -4.141920   1.000000
   59       -4.060205   1.000000
   60       -3.932200   1.000000
   61       -3.746864   1.000000
   62       -3.605947   1.000000
   63       -3.565432   1.000000
   64       -3.520818   1.000000
   65       -3.491225   1.000000
   66       -3.477069   1.000000
   67       -3.398317   1.000000
   68       -3.377222   1.000000
   69       -3.327419   1.000000
   70       -3.263765   1.000000
   71       -3.208013   1.000000
   72       -2.909456   1.000000
   73       -2.743069   1.000000
   74       -2.621094   1.000000
   75       -2.537325   1.000000
   76       -2.494707   1.000000
   77       -2.369203   1.000000
   78       -2.351073   1.000000
   79       -2.251859   1.000000
   80       -2.125837   1.000000
   81       -1.782609   1.000000
   82       -1.726699   1.000000
   83       -1.541370   1.000000
   84       -1.347452   1.000000
   85       -1.221610   1.000000
   86       -1.118732   1.000000
   87       -1.061007   1.000000
   88       -0.925914   1.000000
   89       -0.870445   1.000000
   90       -0.553787   1.000000
   91       -0.414916   1.000003
   92       -0.137054   0.982121
   93       -0.040260   0.336503
   94       -0.001546   0.087042
   95        0.049995  -0.032632
   96        0.082232  -0.030928
   97        0.127442  -0.011739
   98        0.398628  -0.000000
   99        0.438128  -0.000000
  100        0.481200  -0.000000
  101        0.596392  -0.000000
  102        0.683988  -0.000000
  103        0.701280  -0.000000
  104        0.731286  -0.000000
  105        0.811275  -0.000000
  106        1.009125  -0.000000
  107        1.144316  -0.000000
  108        1.169751  -0.000000
  109        1.245420  -0.000000
  110        1.311805  -0.000000
  111        1.336607  -0.000000
  112        1.386105  -0.000000
  113        1.432686  -0.000000
  114        1.479147  -0.000000
  115        1.551337  -0.000000
  116        1.591037  -0.000000
  117        1.605647  -0.000000
  118        1.767640  -0.000000
  119        1.779729  -0.000000
  120        1.816528  -0.000000

  0.2222222E+00  0.3922785E-15  0.3630220E-15  0.6734007E-02
    1      -13.965173   1.000000
    2      -12.934431   1.000000
    3      -12.586725   1.000000
    4      -11.929280   1.000000
    5      -11.557362   1.000000
    6      -11.288403   1.000000
    7      -11.239949   1.000000
    8      -11.200739   1.000000
    9      -11.144011   1.000000
   10      -10.785848   1.000000
   11      -10.780712   1.000000
   12      -10.507230   1.000000
   13      -10.251655   1.000000
   14      -10.237239   1.000000
   15       -9.816363   1.000000
   16       -9.785691   1.000000
   17       -9.224447   1.000000
   18       -8.968145   1.000000
   19       -8.935147   1.000000
   20       -8.692845   1.000000
   21       -8.686768   1.000000
   22       -8.574669   1.000000
   23       -8.462479   1.000000
   24       -8.248450   1.000000
   25       -8.204124   1.000000
   26       -7.953523   1.000000
   27       -7.777724   1.000000
   28       -7.347435   1.000000
   29       -6.637231   1.000000
   30       -6.573025   1.000000
   31       -6.389024   1.000000
   32       -6.318028   1.000000
   33       -6.205488   1.000000
   34       -6.046796   1.000000
   35       -5.768859   1.000000
   36       -5.702425   1.000000
   37       -5.638905   1.000000
   38       -5.455429   1.000000
   39       -5.427132   1.000000
   40       -5.292656   1.000000
   41       -5.202922   1.000000
   42       -5.149040   1.000000
   43       -5.091001   1.000000
   44       -5.069486   1.000000
   45       -4.933985   1.000000
   46       -4.805800   1.000000
   47       -4.767590   1.000000
   48       -4.724417   1.000000
   49       -4.647968   1.000000
   50       -4.607417   1.000000
   51       -4.550562   1.000000
   52       -4.495565   1.000000
   53       -4.426711   1.000000
   54       -4.396712   1.000000
   55       -4.304301   1.000000
   56       -4.240881   1.000000
   57       -4.223167   1.000000
   58       -4.108339   1.000000
   59       -4.061891   1.000000
   60       -3.911582   1.000000
   61       -3.835860   1.000000
   62       -3.651151   1.000000
   63       -3.575340   1.000000
   64       -3.513426   1.000000
   65       -3.488684   1.000000
   66       -3.464438   1.000000
   67       -3.424169   1.000000
   68       -3.363166   1.000000
   69       -3.318644   1.000000
   70       -3.269736   1.000000
   71       -3.129475   1.000000
   72       -3.025042   1.000000
   73       -2.732080   1.000000
   74       -2.674912   1.000000
   75       -2.601872   1.000000
   76       -2.552879   1.000000
   77       -2.479217   1.000000
   78       -2.341482   1.000000
   79       -2.335367   1.000000
   80       -2.107225   1.000000
   81       -1.866062   1.000000
   82       -1.607353   1.000000
   83       -1.521638   1.000000
   84       -1.436382   1.000000
   85       -1.188961   1.000000
   86       -1.085511   1.000000
   87       -0.990706   1.000000
   88       -0.919318   1.000000
   89       -0.697309   1.000000
   90       -0.674794   1.000000
   91       -0.534066   1.000000
   92       -0.208364   1.028375
   93       -0.030045   0.258666
   94       -0.007857   0.118360
   95        0.043659  -0.028520
   96        0.117814  -0.015286
   97        0.290795  -0.000004
   98        0.330534  -0.000000
   99        0.422003  -0.000000
  100        0.448124  -0.000000
  101        0.605616  -0.000000
  102        0.751712  -0.000000
  103        0.762794  -0.000000
  104        0.794600  -0.000000
  105        0.869090  -0.000000
  106        1.076631  -0.000000
  107        1.102954  -0.000000
  108        1.194579  -0.000000
  109        1.294181  -0.000000
  110        1.327958  -0.000000
  111        1.343500  -0.000000
  112        1.444832  -0.000000
  113        1.469576  -0.000000
  114        1.508617  -0.000000
  115        1.568076  -0.000000
  116        1.599424  -0.000000
  117        1.621865  -0.000000
  118        1.760289  -0.000000
  119        1.771489  -0.000000
  120        1.795012  -0.000000

  0.3333333E+00  0.3713828E-15  0.3468587E-15  0.6734007E-02
    1      -13.834245   1.000000
    2      -13.192927   1.000000
    3      -12.470870   1.000000
    4      -11.996246   1.000000
    5      -11.501552   1.000000
    6      -11.316011   1.000000
    7      -11.222863   1.000000
    8      -11.207204   1.000000
    9      -11.057199   1.000000
   10      -10.767336   1.000000
   11      -10.761547   1.000000
   12      -10.626606   1.000000
   13      -10.251910   1.000000
   14      -10.243188   1.000000
   15       -9.760441   1.000000
   16       -9.716743   1.000000
   17       -9.217942   1.000000
   18       -8.971387   1.000000
   19       -8.868652   1.000000
   20       -8.777485   1.000000
   21       -8.758219   1.000000
   22       -8.598061   1.000000
   23       -8.548662   1.000000
   24       -8.323463   1.000000
   25       -8.302367   1.000000
   26       -8.039995   1.000000
   27       -7.709489   1.000000
   28       -7.241069   1.000000
   29       -6.688831   1.000000
   30       -6.561333   1.000000
   31       -6.518055   1.000000
   32       -6.354541   1.000000
   33       -6.035650   1.000000
   34       -5.922596   1.000000
   35       -5.780149   1.000000
   36       -5.589505   1.000000
   37       -5.553667   1.000000
   38       -5.375030   1.000000
   39       -5.320270   1.000000
   40       -5.302206   1.000000
   41       -5.247759   1.000000
   42       -5.168635   1.000000
   43       -5.088861   1.000000
   44       -4.999494   1.000000
   45       -4.906729   1.000000
   46       -4.792225   1.000000
   47       -4.754536   1.000000
   48       -4.688926   1.000000
   49       -4.606654   1.000000
   50       -4.592730   1.000000
   51       -4.554056   1.000000
   52       -4.462869   1.000000
   53       -4.373165   1.000000
   54       -4.349279   1.000000
   55       -4.297521   1.000000
   56       -4.261646   1.000000
   57       -4.179823   1.000000
   58       -4.080210   1.000000
   59       -4.032483   1.000000
   60       -3.995011   1.000000
   61       -3.818279   1.000000
   62       -3.768037   1.000000
   63       -3.601994   1.000000
   64       -3.565543   1.000000
   65       -3.524239   1.000000
   66       -3.471074   1.000000
   67       -3.434711   1.000000
   68       -3.351372   1.000000
   69       -3.319781   1.000000
   70       -3.179248   1.000000
   71       -3.060443   1.000000
   72       -3.000390   1.000000
   73       -2.865414   1.000000
   74       -2.741745   1.000000
   75       -2.672450   1.000000
   76       -2.604276   1.000000
   77       -2.564638   1.000000
   78       -2.428866   1.000000
   79       -2.369222   1.000000
   80       -2.056771   1.000000
   81       -1.973959   1.000000
   82       -1.677115   1.000000
   83       -1.543393   1.000000
   84       -1.276732   1.000000
   85       -1.210942   1.000000
   86       -0.987239   1.000000
   87       -0.928380   1.000000
   88       -0.897711   1.000000
   89       -0.834488   1.000000
   90       -0.629683   1.000000
   91       -0.413882   1.000003
   92       -0.366336   1.000065
   93       -0.036776   0.309217
   94       -0.017585   0.174352
   95        0.054352  -0.034325
   96        0.206237  -0.000544
   97        0.219474  -0.000281
   98        0.290878  -0.000004
   99        0.368992  -0.000000
  100        0.548526  -0.000000
  101        0.772074  -0.000000
  102        0.802806  -0.000000
  103        0.815714  -0.000000
  104        0.835061  -0.000000
  105        0.917968  -0.000000
  106        0.983057  -0.000000
  107        1.242530  -0.000000
  108        1.277502  -0.000000
  109        1.317118  -0.000000
  110        1.343895  -0.000000
  111        1.382337  -0.000000
  112        1.437644  -0.000000
  113        1.472125  -0.000000
  114        1.488678  -0.000000
  115        1.598669  -0.000000
  116        1.649170  -0.000000
  117        1.658040  -0.000000
  118        1.747626  -0.000000
  119        1.766083  -0.000000
  120        1.806496  -0.000000

  0.4444444E+00  0.3870091E-15  0.3932070E-15  0.6734007E-02
    1      -13.656823   1.000000
    2      -13.439495   1.000000
    3      -12.321932   1.000000
    4      -12.144624   1.000000
    5      -11.452834   1.000000
    6      -11.333248   1.000000
    7      -11.211668   1.000000
    8      -11.205165   1.000000
    9      -10.938837   1.000000
   10      -10.775486   1.000000
   11      -10.749753   1.000000
   12      -10.743322   1.000000
   13      -10.257324   1.000000
   14      -10.253474   1.000000
   15       -9.707439   1.000000
   16       -9.651153   1.000000
   17       -9.219022   1.000000
   18       -9.010326   1.000000
   19       -8.945466   1.000000
   20       -8.817021   1.000000
   21       -8.639603   1.000000
   22       -8.609714   1.000000
   23       -8.554017   1.000000
   24       -8.381342   1.000000
   25       -8.359272   1.000000
   26       -8.288340   1.000000
   27       -7.409801   1.000000
   28       -7.152420   1.000000
   29       -6.978307   1.000000
   30       -6.562808   1.000000
   31       -6.519240   1.000000
   32       -6.459626   1.000000
   33       -5.851078   1.000000
   34       -5.754485   1.000000
   35       -5.676737   1.000000
   36       -5.576788   1.000000
   37       -5.496394   1.000000
   38       -5.434447   1.000000
   39       -5.399185   1.000000
   40       -5.315574   1.000000
   41       -5.283094   1.000000
   42       -5.088709   1.000000
   43       -5.002246   1.000000
   44       -4.919790   1.000000
   45       -4.872547   1.000000
   46       -4.817904   1.000000
   47       -4.770406   1.000000
   48       -4.712784   1.000000
   49       -4.632911   1.000000
   50       -4.523898   1.000000
   51       -4.484068   1.000000
   52       -4.446147   1.000000
   53       -4.388692   1.000000
   54       -4.366904   1.000000
   55       -4.244118   1.000000
   56       -4.207696   1.000000
   57       -4.175437   1.000000
   58       -4.107621   1.000000
   59       -3.998759   1.000000
   60       -3.974537   1.000000
   61       -3.902110   1.000000
   62       -3.792133   1.000000
   63       -3.701221   1.000000
   64       -3.583331   1.000000
   65       -3.536626   1.000000
   66       -3.448937   1.000000
   67       -3.421120   1.000000
   68       -3.332747   1.000000
   69       -3.320126   1.000000
   70       -3.129626   1.000000
   71       -3.045377   1.000000
   72       -2.986432   1.000000
   73       -2.858915   1.000000
   74       -2.827373   1.000000
   75       -2.758987   1.000000
   76       -2.698914   1.000000
   77       -2.567866   1.000000
   78       -2.460102   1.000000
   79       -2.341517   1.000000
   80       -2.217220   1.000000
   81       -1.920377   1.000000
   82       -1.741749   1.000000
   83       -1.498315   1.000000
   84       -1.334983   1.000000
   85       -1.116450   1.000000
   86       -0.996362   1.000000
   87       -0.969733   1.000000
   88       -0.882600   1.000000
   89       -0.653572   1.000000
   90       -0.616043   1.000000
   91       -0.552263   1.000000
   92       -0.276509   1.004525
   93       -0.060767   0.506486
   94       -0.025454   0.226086
   95        0.039830  -0.024951
   96        0.138869  -0.008291
   97        0.194303  -0.000953
   98        0.296823  -0.000003
   99        0.483563  -0.000000
  100        0.534847  -0.000000
  101        0.709158  -0.000000
  102        0.813895  -0.000000
  103        0.834866  -0.000000
  104        0.866050  -0.000000
  105        1.110848  -0.000000
  106        1.144781  -0.000000
  107        1.225803  -0.000000
  108        1.339919  -0.000000
  109        1.357728  -0.000000
  110        1.385558  -0.000000
  111        1.435937  -0.000000
  112        1.442980  -0.000000
  113        1.471954  -0.000000
  114        1.506072  -0.000000
  115        1.508637  -0.000000
  116        1.612056  -0.000000
  117        1.629244  -0.000000
  118        1.652290  -0.000000
  119        1.703564  -0.000000
  120        1.731804  -0.000000

  0.3742002E-15  0.9090909E-01  0.3596334E-15  0.6734007E-02
    1      -14.039231   1.000000
    2      -12.655483   1.000000
    3      -12.589725   1.000000
    4      -12.002664   1.000000
    5      -11.593566   1.000000
    6      -11.453883   1.000000
    7      -11.397435   1.000000
    8      -11.213728   1.000000
    9      -11.089739   1.000000
   10      -10.799239   1.000000
   11      -10.772412   1.000000
   12      -10.413591   1.000000
   13      -10.216286   1.000000
   14      -10.194191   1.000000
   15       -9.867402   1.000000
   16       -9.822990   1.000000
   17       -9.251812   1.000000
   18       -9.081368   1.000000
   19       -9.017638   1.000000
   20       -8.700878   1.000000
   21       -8.661756   1.000000
   22       -8.339476   1.000000
   23       -8.132994   1.000000
   24       -8.092717   1.000000
   25       -7.979467   1.000000
   26       -7.961605   1.000000
   27       -7.509206   1.000000
   28       -7.375022   1.000000
   29       -6.735952   1.000000
   30       -6.670030   1.000000
   31       -6.543390   1.000000
   32       -6.369784   1.000000
   33       -6.212934   1.000000
   34       -6.067097   1.000000
   35       -5.827752   1.000000
   36       -5.718490   1.000000
   37       -5.598560   1.000000
   38       -5.563154   1.000000
   39       -5.405925   1.000000
   40       -5.370301   1.000000
   41       -5.315656   1.000000
   42       -5.255576   1.000000
   43       -5.184010   1.000000
   44       -5.080097   1.000000
   45       -4.956220   1.000000
   46       -4.923550   1.000000
   47       -4.879547   1.000000
   48       -4.735606   1.000000
   49       -4.712688   1.000000
   50       -4.670896   1.000000
   51       -4.637479   1.000000
   52       -4.559562   1.000000
   53       -4.509434   1.000000
   54       -4.390083   1.000000
   55       -4.335829   1.000000
   56       -4.227767   1.000000
   57       -4.164381   1.000000
   58       -4.085910   1.000000
   59       -4.057772   1.000000
   60       -3.966251   1.000000
   61       -3.685258   1.000000
   62       -3.616002   1.000000
   63       -3.599837   1.000000
   64       -3.565926   1.000000
   65       -3.476250   1.000000
   66       -3.463198   1.000000
   67       -3.383148   1.000000
   68       -3.377742   1.000000
   69       -3.348711   1.000000
   70       -3.218216   1.000000
   71       -3.181757   1.000000
   72       -2.997876   1.000000
   73       -2.753503   1.000000
   74       -2.524262   1.000000
   75       -2.517631   1.000000
   76       -2.471148   1.000000
   77       -2.384999   1.000000
   78       -2.299091   1.000000
   79       -2.183868   1.000000
   80       -2.115816   1.000000
   81       -1.917366   1.000000
   82       -1.608575   1.000000
   83       -1.559690   1.000000
   84       -1.339433   1.000000
   85       -1.320700   1.000000
   86       -1.134981   1.000000
   87       -1.121085   1.000000
   88       -1.073438   1.000000
   89       -0.774321   1.000000
   90       -0.609986   1.000000
   91       -0.404029   1.000006
   92       -0.206515   1.029174
   93       -0.193526   1.033846
   94       -0.120172   0.920784
   95        0.052375  -0.033662
   96        0.091925  -0.026785
   97        0.140811  -0.007787
   98        0.291149  -0.000004
   99        0.348914  -0.000000
  100        0.457284  -0.000000
  101        0.654757  -0.000000
  102        0.734513  -0.000000
  103        0.739706  -0.000000
  104        0.841018  -0.000000
  105        0.923117  -0.000000
  106        0.994188  -0.000000
  107        1.079894  -0.000000
  108        1.190078  -0.000000
  109        1.216531  -0.000000
  110        1.296001  -0.000000
  111        1.328058  -0.000000
  112        1.382197  -0.000000
  113        1.434202  -0.000000
  114        1.472858  -0.000000
  115        1.563127  -0.000000
  116        1.608172  -0.000000
  117        1.622775  -0.000000
  118        1.718663  -0.000000
  119        1.752194  -0.000000
  120        1.873628  -0.000000

  0.1111111E+00  0.9090909E-01  0.4822234E-15  0.6734007E-02
    1      -13.990471   1.000000
    2      -12.769449   1.000000
    3      -12.609932   1.000000
    4      -11.930014   1.000000
    5      -11.567843   1.000000
    6      -11.499012   1.000000
    7      -11.343017   1.000000
    8      -11.194231   1.000000
    9      -11.146376   1.000000
   10      -10.802171   1.000000
   11      -10.709228   1.000000
   12      -10.443142   1.000000
   13      -10.259667   1.000000
   14      -10.214212   1.000000
   15       -9.829070   1.000000
   16       -9.775378   1.000000
   17       -9.257251   1.000000
   18       -9.078879   1.000000
   19       -8.979603   1.000000
   20       -8.766565   1.000000
   21       -8.690380   1.000000
   22       -8.409117   1.000000
   23       -8.174514   1.000000
   24       -8.049964   1.000000
   25       -7.994138   1.000000
   26       -7.980209   1.000000
   27       -7.655431   1.000000
   28       -7.355480   1.000000
   29       -6.745030   1.000000
   30       -6.571649   1.000000
   31       -6.437412   1.000000
   32       -6.307774   1.000000
   33       -6.219898   1.000000
   34       -6.077762   1.000000
   35       -5.883578   1.000000
   36       -5.639276   1.000000
   37       -5.587944   1.000000
   38       -5.511048   1.000000
   39       -5.483162   1.000000
   40       -5.343105   1.000000
   41       -5.257359   1.000000
   42       -5.244706   1.000000
   43       -5.200664   1.000000
   44       -5.088052   1.000000
   45       -4.934444   1.000000
   46       -4.863694   1.000000
   47       -4.800189   1.000000
   48       -4.720489   1.000000
   49       -4.682318   1.000000
   50       -4.637546   1.000000
   51       -4.601405   1.000000
   52       -4.546985   1.000000
   53       -4.521558   1.000000
   54       -4.406065   1.000000
   55       -4.363055   1.000000
   56       -4.254057   1.000000
   57       -4.168832   1.000000
   58       -4.096023   1.000000
   59       -4.056376   1.000000
   60       -3.920402   1.000000
   61       -3.726526   1.000000
   62       -3.652234   1.000000
   63       -3.626931   1.000000
   64       -3.572389   1.000000
   65       -3.488857   1.000000
   66       -3.461494   1.000000
   67       -3.362951   1.000000
   68       -3.340559   1.000000
   69       -3.323375   1.000000
   70       -3.229263   1.000000
   71       -3.196485   1.000000
   72       -3.049592   1.000000
   73       -2.754520   1.000000
   74       -2.586647   1.000000
   75       -2.556667   1.000000
   76       -2.527399   1.000000
   77       -2.389818   1.000000
   78       -2.359591   1.000000
   79       -2.179635   1.000000
   80       -2.140371   1.000000
   81       -1.907587   1.000000
   82       -1.601645   1.000000
   83       -1.577048   1.000000
   84       -1.435363   1.000000
   85       -1.303932   1.000000
   86       -1.115807   1.000000
   87       -0.996397   1.000000
   88       -0.916268   1.000000
   89       -0.809539   1.000000
   90       -0.694343   1.000000
   91       -0.429276   1.000001
   92       -0.211999   1.026752
   93       -0.168229   1.031694
   94       -0.014183   0.153733
   95        0.009527   0.041787
   96        0.089054  -0.028071
   97        0.118468  -0.015027
   98        0.242053  -0.000083
   99        0.307974  -0.000001
  100        0.587895  -0.000000
  101        0.664972  -0.000000
  102        0.720291  -0.000000
  103        0.765877  -0.000000
  104        0.859268  -0.000000
  105        0.927704  -0.000000
  106        1.000624  -0.000000
  107        1.150186  -0.000000
  108        1.172974  -0.000000
  109        1.222872  -0.000000
  110        1.258904  -0.000000
  111        1.355307  -0.000000
  112        1.423141  -0.000000
  113        1.483803  -0.000000
  114        1.509036  -0.000000
  115        1.533854  -0.000000
  116        1.607097  -0.000000
  117        1.622172  -0.000000
  118        1.704571  -0.000000
  119        1.793048  -0.000000
  120        1.825118  -0.000000

  0.2222222E+00  0.9090909E-01  0.3065600E-15  0.6734007E-02
    1      -13.889579   1.000000
    2      -13.017721   1.000000
    3      -12.519697   1.000000
    4      -11.926470   1.000000
    5      -11.541409   1.000000
    6      -11.512693   1.000000
    7      -11.293237   1.000000
    8      -11.247607   1.000000
    9      -11.095235   1.000000
   10      -10.769689   1.000000
   11      -10.623345   1.000000
   12      -10.528540   1.000000
   13      -10.338602   1.000000
   14      -10.252861   1.000000
   15       -9.755799   1.000000
   16       -9.685756   1.000000
   17       -9.269620   1.000000
   18       -9.091385   1.000000
   19       -8.928800   1.000000
   20       -8.802766   1.000000
   21       -8.763041   1.000000
   22       -8.532360   1.000000
   23       -8.268716   1.000000
   24       -8.074814   1.000000
   25       -8.034368   1.000000
   26       -7.877034   1.000000
   27       -7.825957   1.000000
   28       -7.290235   1.000000
   29       -6.752446   1.000000
   30       -6.493350   1.000000
   31       -6.423176   1.000000
   32       -6.330393   1.000000
   33       -6.154950   1.000000
   34       -6.037784   1.000000
   35       -5.834340   1.000000
   36       -5.686199   1.000000
   37       -5.508907   1.000000
   38       -5.432403   1.000000
   39       -5.395571   1.000000
   40       -5.322760   1.000000
   41       -5.264206   1.000000
   42       -5.209128   1.000000
   43       -5.137878   1.000000
   44       -5.083587   1.000000
   45       -4.912809   1.000000
   46       -4.828351   1.000000
   47       -4.771833   1.000000
   48       -4.685695   1.000000