 running on   48 total cores
 distrk:  each k-point on   48 cores,    1 groups
 distr:  one band on    6 cores,    8 groups
 using from now: INCAR     
 vasp.5.4.4.18Apr17-6-g9f103f2a35 (build Dec  7 2020 12:43:57) complex           
 POSCAR found type information on POSCAR  Mo V  B  H 
 POSCAR found :  4 types and      49 ions
 scaLAPACK will be used
 LDA part: xc-table for Pade appr. of Perdew
 POSCAR, INCAR and KPOINTS ok, starting setup
 resort distribution
 resort distribution
 resort distribution
 resort distribution
 resort distribution
 resort distribution
 resort distribution
 resort distribution
 resort distribution
 resort distribution
 resort distribution
 resort distribution
 resort distribution
 resort distribution
 resort distribution
 resort distribution
 resort distribution
 resort distribution
 resort distribution
 resort distribution
 resort distribution
 resort distribution
 resort distribution
 resort distribution
 resort distribution
 resort distribution
 resort distribution
 resort distribution
 resort distribution
 resort distribution
 resort distribution
 resort distribution
 resort distribution
 resort distribution
 resort distribution
 resort distribution
 resort distribution
 resort distribution
 resort distribution
 resort distribution
 resort distribution
 resort distribution
 resort distribution
 resort distribution
 resort distribution
 resort distribution
 resort distribution
 resort distribution
 FFT: planning ...
 WAVECAR not read
 augmentation electrons   189.00992563462694     
 soft         electrons   0.0000000000000000     
 augmentation electrons   189.00992563462694     
 soft         electrons   0.0000000000000000     
 augmentation electrons   189.00992563462694     
 soft         electrons   0.0000000000000000     
 augmentation electrons   189.00992563462694     
 soft         electrons   0.0000000000000000     
 augmentation electrons   189.00992563462694     
 soft         electrons   0.0000000000000000     
 augmentation electrons   189.00992563462694     
 soft         electrons   0.0000000000000000     
 augmentation electrons   189.00992563462694     
 soft         electrons   0.0000000000000000     
 augmentation electrons   189.00992563462694     
 soft         electrons   0.0000000000000000     
 augmentation electrons   189.00992563462694     
 soft         electrons   0.0000000000000000     
 augmentation electrons   189.00992563462694     
 soft         electrons   0.0000000000000000     
 augmentation electrons   189.00992563462694     
 soft         electrons   0.0000000000000000     
 augmentation electrons   189.00992563462694     
 soft         electrons   0.0000000000000000     
 augmentation electrons   189.00992563462694     
 soft         electrons   0.0000000000000000     
 augmentation electrons   189.00992563462694     
 soft         electrons   0.0000000000000000     
 augmentation electrons   189.00992563462694     
 soft         electrons   0.0000000000000000     
 augmentation electrons   189.00992563462694     
 soft         electrons   0.0000000000000000     
 augmentation electrons   189.00992563462694     
 soft         electrons   0.0000000000000000     
 augmentation electrons   189.00992563462694     
 soft         electrons   0.0000000000000000     
 augmentation electrons   189.00992563462694     
 soft         electrons   0.0000000000000000     
 augmentation electrons   189.00992563462694     
 soft         electrons   0.0000000000000000     
 augmentation electrons   189.00992563462694     
 soft         electrons   0.0000000000000000     
 augmentation electrons   189.00992563462694     
 soft         electrons   0.0000000000000000     
 augmentation electrons   189.00992563462694     
 soft         electrons   0.0000000000000000     
 augmentation electrons   189.00992563462694     
 soft         electrons   0.0000000000000000     
 augmentation electrons   189.00992563462694     
 soft         electrons   0.0000000000000000     
 augmentation electrons   189.00992563462694     
 soft         electrons   0.0000000000000000     
 augmentation electrons   189.00992563462694     
 soft         electrons   0.0000000000000000     
 augmentation electrons   189.00992563462694     
 soft         electrons   0.0000000000000000     
 augmentation electrons   189.00992563462694     
 soft         electrons   0.0000000000000000     
 augmentation electrons   189.00992563462694     
 soft         electrons   0.0000000000000000     
 augmentation electrons   189.00992563462694     
 soft         electrons   0.0000000000000000     
 augmentation electrons   189.00992563462694     
 soft         electrons   0.0000000000000000     
 augmentation electrons   189.00992563462694     
 soft         electrons   0.0000000000000000     
 augmentation electrons   189.00992563462694     
 soft         electrons   0.0000000000000000     
 augmentation electrons   189.00992563462694     
 soft         electrons   0.0000000000000000     
 augmentation electrons   189.00992563462694     
 soft         electrons   0.0000000000000000     
 augmentation electrons   189.00992563462694     
 soft         electrons   0.0000000000000000     
 augmentation electrons   189.00992563462694     
 soft         electrons   0.0000000000000000     
 augmentation electrons   189.00992563462694     
 soft         electrons   0.0000000000000000     
 augmentation electrons   189.00992563462694     
 soft         electrons   0.0000000000000000     
 augmentation electrons   189.00992563462694     
 soft         electrons   0.0000000000000000     
 augmentation electrons   189.00992563462694     
 soft         electrons   0.0000000000000000     
 augmentation electrons   189.00992563462694     
 soft         electrons   0.0000000000000000     
 augmentation electrons   189.00992563462694     
 soft         electrons   0.0000000000000000     
 augmentation electrons   189.00992563462694     
 soft         electrons   0.0000000000000000     
 augmentation electrons   189.00992563462694     
 soft         electrons   0.0000000000000000     
 augmentation electrons   189.00992563462694     
 soft         electrons   0.0000000000000000     
 total        electrons   189.00992563462694     
 total        electrons   189.00992563462694     
 augmentation electrons   189.00992563462694     
 soft         electrons   0.0000000000000000     
 total        electrons   189.00992563462694     
 total        electrons   189.00992563462694     
 total        electrons   189.00992563462694     
 total        electrons   189.00992563462694     
 total        electrons   189.00992563462694     
 total        electrons   189.00992563462694     
 total        electrons   189.00992563462694     
 total        electrons   189.00992563462694     
 total        electrons   189.00992563462694     
 total        electrons   189.00992563462694     
 total        electrons   189.00992563462694     
 total        electrons   189.00992563462694     
 total        electrons   189.00992563462694     
 total        electrons   189.00992563462694     
 total        electrons   189.00992563462694     
 total        electrons   189.00992563462694     
 total        electrons   189.00992563462694     
 total        electrons   189.00992563462694     
 total        electrons   189.00992563462694     
 total        electrons   189.00992563462694     
 total        electrons   189.00992563462694     
 total        electrons   189.00992563462694     
 total        electrons   189.00992563462694     
 total        electrons   189.00992563462694     
 total        electrons   189.00992563462694     
 total        electrons   189.00992563462694     
 total        electrons   189.00992563462694     
 total        electrons   189.00992563462694     
 total        electrons   189.00992563462694     
 total        electrons   189.00992563462694     
 total        electrons   189.00992563462694     
 total        electrons   189.00992563462694     
 total        electrons   189.00992563462694     
 total        electrons   189.00992563462694     
 total        electrons   189.00992563462694     
 total        electrons   189.00992563462694     
 total        electrons   189.00992563462694     
 total        electrons   189.00992563462694     
 total        electrons   189.00992563462694     
 total        electrons   189.00992563462694     
 total        electrons   189.00992563462694     
 total        electrons   189.00992563462694     
 total        electrons   189.00992563462694     
 total        electrons   189.00992563462694     
 total        electrons   189.00992563462694     
 total        electrons   189.00992563462694     
 augmentation electrons   591.49649837924051     
 soft         electrons   0.0000000000000000     
 augmentation electrons   591.49649837924051     
 soft         electrons   0.0000000000000000     
 augmentation electrons   591.49649837924051     
 soft         electrons   0.0000000000000000     
 augmentation electrons   591.49649837924051     
 soft         electrons   0.0000000000000000     
 augmentation electrons   591.49649837924051     
 soft         electrons   0.0000000000000000     
 augmentation electrons   591.49649837924051     
 soft         electrons   0.0000000000000000     
 augmentation electrons   591.49649837924051     
 augmentation electrons   591.49649837924051     
 soft         electrons   0.0000000000000000     
 augmentation electrons   591.49649837924051     
 soft         electrons   0.0000000000000000     
 augmentation electrons   591.49649837924051     
 soft         electrons   0.0000000000000000     
 augmentation electrons   591.49649837924051     
 soft         electrons   0.0000000000000000     
 augmentation electrons   591.49649837924051     
 soft         electrons   0.0000000000000000     
 augmentation electrons   591.49649837924051     
 soft         electrons   0.0000000000000000     
 augmentation electrons   591.49649837924051     
 soft         electrons   0.0000000000000000     
 augmentation electrons   591.49649837924051     
 soft         electrons   0.0000000000000000     
 augmentation electrons   591.49649837924051     
 soft         electrons   0.0000000000000000     
 augmentation electrons   591.49649837924051     
 soft         electrons   0.0000000000000000     
 augmentation electrons   591.49649837924051     
 soft         electrons   0.0000000000000000     
 augmentation electrons   591.49649837924051     
 soft         electrons   0.0000000000000000     
 augmentation electrons   591.49649837924051     
 soft         electrons   0.0000000000000000     
 augmentation electrons   591.49649837924051     
 soft         electrons   0.0000000000000000     
 augmentation electrons   591.49649837924051     
 soft         electrons   0.0000000000000000     
 augmentation electrons   591.49649837924051     
 soft         electrons   0.0000000000000000     
 augmentation electrons   591.49649837924051     
 soft         electrons   0.0000000000000000     
 augmentation electrons   591.49649837924051     
 soft         electrons   0.0000000000000000     
 augmentation electrons   591.49649837924051     
 soft         electrons   0.0000000000000000     
 augmentation electrons   591.49649837924051     
 soft         electrons   0.0000000000000000     
 augmentation electrons   591.49649837924051     
 soft         electrons   0.0000000000000000     
 augmentation electrons   591.49649837924051     
 soft         electrons   0.0000000000000000     
 augmentation electrons   591.49649837924051     
 soft         electrons   0.0000000000000000     
 augmentation electrons   591.49649837924051     
 soft         electrons   0.0000000000000000     
 augmentation electrons   591.49649837924051     
 soft         electrons   0.0000000000000000     
 augmentation electrons   591.49649837924051     
 soft         electrons   0.0000000000000000     
 augmentation electrons   591.49649837924051     
 soft         electrons   0.0000000000000000     
 augmentation electrons   591.49649837924051     
 soft         electrons   0.0000000000000000     
 augmentation electrons   591.49649837924051     
 soft         electrons   0.0000000000000000     
 augmentation electrons   591.49649837924051     
 soft         electrons   0.0000000000000000     
 augmentation electrons   591.49649837924051     
 soft         electrons   0.0000000000000000     
 augmentation electrons   591.49649837924051     
 soft         electrons   0.0000000000000000     
 augmentation electrons   591.49649837924051     
 soft         electrons   0.0000000000000000     
 augmentation electrons   591.49649837924051     
 soft         electrons   0.0000000000000000     
 augmentation electrons   591.49649837924051     
 soft         electrons   0.0000000000000000     
 augmentation electrons   591.49649837924051     
 soft         electrons   0.0000000000000000     
 augmentation electrons   591.49649837924051     
 soft         electrons   0.0000000000000000     
 augmentation electrons   591.49649837924051     
 soft         electrons   0.0000000000000000     
 augmentation electrons   591.49649837924051     
 soft         electrons   0.0000000000000000     
 augmentation electrons   591.49649837924051     
 soft         electrons   0.0000000000000000     
 augmentation electrons   591.49649837924051     
 soft         electrons   0.0000000000000000     
 soft         electrons   0.0000000000000000     
 total        electrons   591.49649837924051     
 total        electrons   591.49649837924051     
 total        electrons   591.49649837924051     
 total        electrons   591.49649837924051     
 total        electrons   591.49649837924051     
 total        electrons   591.49649837924051     
 total        electrons   591.49649837924051     
 total        electrons   591.49649837924051     
 total        electrons   591.49649837924051     
 total        electrons   591.49649837924051     
 total        electrons   591.49649837924051     
 total        electrons   591.49649837924051     
 total        electrons   591.49649837924051     
 total        electrons   591.49649837924051     
 total        electrons   591.49649837924051     
 total        electrons   591.49649837924051     
 total        electrons   591.49649837924051     
 total        electrons   591.49649837924051     
 total        electrons   591.49649837924051     
 total        electrons   591.49649837924051     
 total        electrons   591.49649837924051     
 total        electrons   591.49649837924051     
 total        electrons   591.49649837924051     
 total        electrons   591.49649837924051     
 total        electrons   591.49649837924051     
 total        electrons   591.49649837924051     
 total        electrons   591.49649837924051     
 total        electrons   591.49649837924051     
 total        electrons   591.49649837924051     
 total        electrons   591.49649837924051     
 total        electrons   591.49649837924051     
 total        electrons   591.49649837924051     
 total        electrons   591.49649837924051     
 total        electrons   591.49649837924051     
 total        electrons   591.49649837924051     
 total        electrons   591.49649837924051     
 total        electrons   591.49649837924051     
 total        electrons   591.49649837924051     
 total        electrons   591.49649837924051     
 total        electrons   591.49649837924051     
 total        electrons   591.49649837924051     
 total        electrons   591.49649837924051     
 total        electrons   591.49649837924051     
 total        electrons   591.49649837924051     
 total        electrons   591.49649837924051     
 total        electrons   591.49649837924051     
 total        electrons   591.49649837924051     
 total        electrons   591.49649837924051     
 entering main loop
       N       E                     dE             d eps       ncg     rms          rms(c)
RMM:   1     0.197808141420E+04    0.19781E+04   -0.57750E+04 17880   0.112E+03
RMM:   2     0.457346289869E+03   -0.15207E+04   -0.17630E+04 17880   0.271E+02
RMM:   3    -0.148448954986E+02   -0.47219E+03   -0.61436E+03 17880   0.170E+02
RMM:   4    -0.202462902460E+03   -0.18762E+03   -0.20635E+03 17880   0.206E+02
RMM:   5    -0.318163098457E+03   -0.11570E+03   -0.94412E+02 17880   0.119E+02
RMM:   6    -0.375662385809E+03   -0.57499E+02   -0.45155E+02 17880   0.110E+02
RMM:   7    -0.408616720287E+03   -0.32954E+02   -0.29508E+02 17880   0.656E+01
RMM:   8    -0.428087506709E+03   -0.19471E+02   -0.16813E+02 17880   0.663E+01
RMM:   9    -0.462606333004E+03   -0.34519E+02   -0.33464E+02 50215   0.382E+01
RMM:  10    -0.467867975053E+03   -0.52616E+01   -0.55452E+01 50158   0.881E+00
RMM:  11    -0.468942572060E+03   -0.10746E+01   -0.90144E+00 50320   0.293E+00
RMM:  12    -0.469329692999E+03   -0.38712E+00   -0.29969E+00 50318   0.102E+00    0.116E+02
RMM:  13    -0.437121628713E+03    0.32208E+02   -0.79109E+02 47305   0.866E+01    0.652E+01
RMM:  14    -0.497792330066E+03   -0.60671E+02   -0.27215E+02 50498   0.330E+01    0.439E+01
RMM:  15    -0.411975057430E+03    0.85817E+02   -0.60835E+01 46157   0.233E+01    0.265E+01
RMM:  16    -0.403578297934E+03    0.83968E+01   -0.32739E+01 41158   0.212E+01    0.211E+01
RMM:  17    -0.397756739693E+03    0.58216E+01   -0.12744E+01 47465   0.989E+00    0.163E+01
RMM:  18    -0.397993156736E+03   -0.23642E+00   -0.20282E+00 41544   0.479E+00    0.150E+01
RMM:  19    -0.398197154299E+03   -0.20400E+00   -0.11803E+00 47225   0.234E+00    0.136E+01
RMM:  20    -0.397361956001E+03    0.83520E+00   -0.10144E+01 35766   0.144E+01    0.885E+00
RMM:  21    -0.397077534736E+03    0.28442E+00   -0.31235E+00 49352   0.282E+00    0.552E+00
RMM:  22    -0.397097062499E+03   -0.19528E-01   -0.73468E-01 42810   0.245E+00    0.585E+00
RMM:  23    -0.396847290684E+03    0.24977E+00   -0.29244E-01 41024   0.192E+00    0.369E+00
RMM:  24    -0.396748025679E+03    0.99265E-01   -0.79566E-01 36178   0.345E+00    0.199E+00
RMM:  25    -0.396709305610E+03    0.38720E-01   -0.13525E-01 37418   0.155E+00    0.109E+00
RMM:  26    -0.396713729271E+03   -0.44237E-02   -0.81863E-02 47572   0.569E-01    0.923E-01
RMM:  27    -0.396709336624E+03    0.43926E-02   -0.34419E-02 38766   0.567E-01    0.484E-01
RMM:  28    -0.396710211496E+03   -0.87487E-03   -0.19098E-02 38910   0.577E-01    0.502E-01
RMM:  29    -0.396709144537E+03    0.10670E-02   -0.12891E-02 36693   0.454E-01    0.239E-01
RMM:  30    -0.396711219603E+03   -0.20751E-02   -0.10451E-02 48291   0.118E-01    0.256E-01
RMM:  31    -0.396712939440E+03   -0.17198E-02   -0.20274E-03 48124   0.805E-02    0.302E-01
RMM:  32    -0.396712629795E+03    0.30964E-03   -0.62081E-04 35885   0.108E-01    0.169E-01
RMM:  33    -0.396713363160E+03   -0.73337E-03   -0.13541E-03 44827   0.991E-02    0.883E-02
RMM:  34    -0.396713885929E+03   -0.52277E-03   -0.71323E-04 48138   0.554E-02    0.574E-02
RMM:  35    -0.396714062903E+03   -0.17697E-03   -0.18794E-04 35949   0.600E-02    0.493E-02
RMM:  36    -0.396714267792E+03   -0.20489E-03   -0.74269E-05 43891   0.182E-02    0.139E-02
RMM:  37    -0.396714323184E+03   -0.55391E-04   -0.23944E-05 32519   0.934E-03    0.139E-02
RMM:  38    -0.396714355062E+03   -0.31878E-04   -0.55670E-06 26643   0.513E-03    0.144E-02
RMM:  39    -0.396714398906E+03   -0.43844E-04   -0.79360E-06 29237   0.638E-03    0.645E-03
RMM:  40    -0.396714428289E+03   -0.29383E-04   -0.97686E-06 28300   0.125E-02    0.118E-02
RMM:  41    -0.396714473832E+03   -0.45542E-04   -0.55732E-06 27165   0.432E-03    0.109E-02
RMM:  42    -0.396714504712E+03   -0.30880E-04   -0.23206E-06 23991   0.574E-03    0.358E-03
RMM:  43    -0.396714515486E+03   -0.10774E-04   -0.88826E-07 22225   0.230E-03    0.310E-03
RMM:  44    -0.396714533908E+03   -0.18423E-04   -0.20715E-06 24107   0.504E-03    0.388E-03
RMM:  45    -0.396714540621E+03   -0.67128E-05   -0.71997E-07 21340   0.298E-03    0.522E-04
RMM:  46    -0.396714543330E+03   -0.27088E-05   -0.45924E-07 19991   0.245E-03    0.191E-03
RMM:  47    -0.396714544575E+03   -0.12455E-05   -0.26570E-07 18753   0.202E-03    0.568E-04
RMM:  48    -0.396714545892E+03   -0.13160E-05   -0.19628E-07 13268   0.106E-03    0.761E-04
RMM:  49    -0.396714546192E+03   -0.30011E-06   -0.11041E-07 13454   0.128E-03
   1 F= -.39671455E+03 E0= -.39671600E+03  d E =-.396715E+03
 curvature:   0.00 expect dE= 0.000E+00 dE for cont linesearch  0.000E+00
 trial: gam= 0.00000 g(F)=  0.189E-01 g(S)=  0.000E+00 ort = 0.000E+00 (trialstep = 0.100E+01)
 search vector abs. value=  0.189E-01
 bond charge predicted
       N       E                     dE             d eps       ncg     rms          rms(c)
RMM:   1    -0.396729135815E+03   -0.14590E-01   -0.32197E-01 36079   0.143E+00    0.164E-01
RMM:   2    -0.396729363220E+03   -0.22740E-03   -0.72295E-03 38049   0.351E-01    0.120E-01
RMM:   3    -0.396730316078E+03   -0.95286E-03   -0.30087E-03 47577   0.154E-01    0.257E-01
RMM:   4    -0.396729429284E+03    0.88679E-03   -0.12741E-03 42589   0.123E-01    0.125E-01
RMM:   5    -0.396729283614E+03    0.14567E-03   -0.50619E-04 38131   0.895E-02    0.648E-02
RMM:   6    -0.396729234177E+03    0.49437E-04   -0.25032E-04 44533   0.460E-02    0.406E-02
RMM:   7    -0.396729229138E+03    0.50386E-05   -0.14266E-04 44101   0.369E-02    0.391E-02
RMM:   8    -0.396729212844E+03    0.16294E-04   -0.53594E-05 39799   0.273E-02    0.182E-02
RMM:   9    -0.396729212767E+03    0.77325E-07   -0.26185E-05 36945   0.156E-02    0.137E-02
RMM:  10    -0.396729209643E+03    0.31242E-05   -0.86099E-06 28250   0.993E-03    0.641E-03
RMM:  11    -0.396729210278E+03   -0.63552E-06   -0.52065E-06 25864   0.840E-03
   2 F= -.39672921E+03 E0= -.39673067E+03  d E =-.146641E-01
 trial-energy change:   -0.014664  1 .order   -0.014565   -0.018914   -0.010216
 step:   2.0313(harm=  2.1744)  dis= 0.03926  next Energy=  -396.734586 (dE=-0.200E-01)
 bond charge predicted
       N       E                     dE             d eps       ncg     rms          rms(c)
RMM:   1    -0.396734659419E+03   -0.54498E-02   -0.34782E-01 36079   0.148E+00    0.177E-01
RMM:   2    -0.396734871987E+03   -0.21257E-03   -0.78235E-03 37795   0.369E-01    0.129E-01
RMM:   3    -0.396735983792E+03   -0.11118E-02   -0.34425E-03 47519   0.166E-01    0.276E-01
RMM:   4    -0.396734958590E+03    0.10252E-02   -0.15254E-03 42377   0.136E-01    0.138E-01
RMM:   5    -0.396734774683E+03    0.18391E-03   -0.58475E-04 38060   0.962E-02    0.683E-02
RMM:   6    -0.396734722114E+03    0.52569E-04   -0.29841E-04 44831   0.496E-02    0.448E-02
RMM:   7    -0.396734708734E+03    0.13380E-04   -0.17577E-04 45066   0.387E-02    0.370E-02
RMM:   8    -0.396734694436E+03    0.14298E-04   -0.61846E-05 40794   0.282E-02    0.206E-02
RMM:   9    -0.396734692932E+03    0.15038E-05   -0.27740E-05 37043   0.183E-02    0.143E-02
RMM:  10    -0.396734689638E+03    0.32939E-05   -0.10618E-05 30002   0.997E-03    0.440E-03
RMM:  11    -0.396734689676E+03   -0.37337E-07   -0.37259E-06 25726   0.504E-03
   3 F= -.39673469E+03 E0= -.39673616E+03  d E =-.201435E-01
 curvature:  -1.07 expect dE=-0.910E-02 dE for cont linesearch -0.207E-05
 trial: gam= 0.43917 g(F)=  0.850E-02 g(S)=  0.000E+00 ort = 0.191E-03 (trialstep = 0.121E+01)
 search vector abs. value=  0.123E-01
 bond charge predicted
       N       E                     dE             d eps       ncg     rms          rms(c)
RMM:   1    -0.396744166827E+03   -0.94772E-02   -0.28190E-01 35760   0.138E+00    0.111E-01
RMM:   2    -0.396744640365E+03   -0.47354E-03   -0.50085E-03 37163   0.344E-01    0.790E-02
RMM:   3    -0.396745118506E+03   -0.47814E-03   -0.14586E-03 45957   0.120E-01    0.172E-01
RMM:   4    -0.396744759638E+03    0.35887E-03   -0.46615E-04 40338   0.823E-02    0.750E-02
RMM:   5    -0.396744729490E+03    0.30147E-04   -0.29464E-04 39585   0.586E-02    0.560E-02
RMM:   6    -0.396744701012E+03    0.28478E-04   -0.11489E-04 43751   0.316E-02    0.198E-02
RMM:   7    -0.396744699526E+03    0.14862E-05   -0.45460E-05 37618   0.138E-02    0.139E-02
RMM:   8    -0.396744697665E+03    0.18608E-05   -0.93853E-06 27454   0.873E-03    0.770E-03
RMM:   9    -0.396744698361E+03   -0.69612E-06   -0.53625E-06 26574   0.787E-03
   4 F= -.39674470E+03 E0= -.39674619E+03  d E =-.100087E-01
 ZBRENT: can't locate minimum, use default step
 trial-energy change:   -0.010009  1 .order   -0.009992   -0.010352   -0.009632
 step:   4.8250(harm= 17.3527)  dis= 0.11409  next Energy=  -396.809150 (dE=-0.745E-01)
 bond charge predicted
       N       E                     dE             d eps       ncg     rms          rms(c)
RMM:   1    -0.396769594553E+03   -0.24897E-01   -0.25375E+00 35817   0.409E+00    0.347E-01
RMM:   2    -0.396770146036E+03   -0.55148E-03   -0.46849E-02 37390   0.103E+00    0.281E-01
RMM:   3    -0.396773201465E+03   -0.30554E-02   -0.12585E-02 46787   0.331E-01    0.463E-01
RMM:   4    -0.396770911578E+03    0.22899E-02   -0.41741E-03 41175   0.231E-01    0.287E-01
RMM:   5    -0.396770320855E+03    0.59072E-03   -0.27175E-03 37725   0.209E-01    0.182E-01
RMM:   6    -0.396770252263E+03    0.68592E-04   -0.17808E-03 43122   0.134E-01    0.131E-01
RMM:   7    -0.396770069483E+03    0.18278E-03   -0.70279E-04 38734   0.969E-02    0.768E-02
RMM:   8    -0.396770001185E+03    0.68298E-04   -0.26347E-04 42109   0.485E-02    0.323E-02
RMM:   9    -0.396770011853E+03   -0.10669E-04   -0.15732E-04 44312   0.307E-02    0.290E-02
RMM:  10    -0.396770001978E+03    0.98752E-05   -0.56118E-05 43137   0.187E-02    0.141E-02
RMM:  11    -0.396770002205E+03   -0.22710E-06   -0.20136E-05 30283   0.117E-02    0.111E-02
RMM:  12    -0.396770002086E+03    0.11937E-06   -0.69899E-06 26882   0.793E-03
   5 F= -.39677000E+03 E0= -.39677158E+03  d E =-.353124E-01
 curvature:  -4.96 expect dE=-0.146E-01 dE for cont linesearch -0.139E-01
 ZBRENT: increasing intervall
 opt :  12.0625  next Energy=  -396.797392 (dE=-0.627E-01)
 bond charge predicted
       N       E                     dE             d eps       ncg     rms          rms(c)
RMM:   1    -0.396835517054E+03   -0.65515E-01   -0.99007E+00 35897   0.786E+00    0.816E-01
RMM:   2    -0.396801504182E+03    0.34013E-01   -0.23756E-01 38689   0.219E+00    0.752E-01
RMM:   3    -0.396811336508E+03   -0.98323E-02   -0.69944E-02 46411   0.778E-01    0.107E+00
RMM:   4    -0.396797646974E+03    0.13690E-01   -0.20591E-02 40635   0.528E-01    0.647E-01
RMM:   5    -0.396794136987E+03    0.35100E-02   -0.96439E-03 38609   0.395E-01    0.377E-01
RMM:   6    -0.396794858370E+03   -0.72138E-03   -0.10946E-02 44132   0.309E-01    0.363E-01
RMM:   7    -0.396793678465E+03    0.11799E-02   -0.59183E-03 39539   0.288E-01    0.233E-01
RMM:   8    -0.396793064845E+03    0.61362E-03   -0.22855E-03 41984   0.166E-01    0.123E-01
RMM:   9    -0.396793056291E+03    0.85537E-05   -0.12976E-03 42313   0.111E-01    0.966E-02
RMM:  10    -0.396792905484E+03    0.15081E-03   -0.54461E-04 45782   0.583E-02    0.279E-02
RMM:  11    -0.396792917405E+03   -0.11921E-04   -0.16760E-04 46175   0.271E-02    0.329E-02
RMM:  12    -0.396792910228E+03    0.71767E-05   -0.49918E-05 40053   0.188E-02    0.131E-02
RMM:  13    -0.396792914812E+03   -0.45838E-05   -0.28005E-05 38068   0.847E-03    0.890E-03
RMM:  14    -0.396792918953E+03   -0.41409E-05   -0.67828E-06 29745   0.797E-03    0.300E-03
RMM:  15    -0.396792920709E+03   -0.17562E-05   -0.14103E-06 21686   0.452E-03    0.177E-03
RMM:  16    -0.396792922660E+03   -0.19503E-05   -0.62203E-07 21208   0.339E-03    0.989E-04
RMM:  17    -0.396792924685E+03   -0.20251E-05   -0.53209E-07 21168   0.236E-03    0.640E-04
RMM:  18    -0.396792926102E+03   -0.14169E-05   -0.33871E-07 20675   0.206E-03    0.441E-04
RMM:  19    -0.396792927512E+03   -0.14101E-05   -0.27362E-07 17259   0.148E-03    0.271E-04
RMM:  20    -0.396792928362E+03   -0.84987E-06   -0.20369E-07 16674   0.142E-03
   6 F= -.39679293E+03 E0= -.39679471E+03  d E =-.582387E-01
 curvature:  -9.74 expect dE=-0.897E-01 dE for cont linesearch -0.623E-05
 trial: gam= 1.63129 g(F)=  0.921E-02 g(S)=  0.000E+00 ort = 0.887E-04 (trialstep = 0.984E+00)
 search vector abs. value=  0.423E-01
 bond charge predicted
       N       E                     dE             d eps       ncg     rms          rms(c)
RMM:   1    -0.396799715725E+03   -0.67882E-02   -0.63524E-01 35855   0.204E+00    0.166E-01
RMM:   2    -0.396800642910E+03   -0.92718E-03   -0.10880E-02 37297   0.480E-01    0.117E-01
RMM:   3    -0.396801586350E+03   -0.94344E-03   -0.30637E-03 47852   0.158E-01    0.223E-01
RMM:   4    -0.396800890684E+03    0.69567E-03   -0.98979E-04 41333   0.112E-01    0.122E-01
RMM:   5    -0.396800809878E+03    0.80806E-04   -0.66567E-04 38600   0.952E-02    0.869E-02
RMM:   6    -0.396800756499E+03    0.53379E-04   -0.28939E-04 43356   0.541E-02    0.437E-02
RMM:   7    -0.396800737481E+03    0.19018E-04   -0.12075E-04 42697   0.291E-02    0.249E-02
RMM:   8    -0.396800731489E+03    0.59929E-05   -0.32005E-05 36437   0.146E-02    0.133E-02
RMM:   9    -0.396800733741E+03   -0.22521E-05   -0.22229E-05 35613   0.144E-02    0.142E-02
RMM:  10    -0.396800731480E+03    0.22610E-05   -0.95037E-06 31486   0.957E-03    0.519E-03
RMM:  11    -0.396800731932E+03   -0.45253E-06   -0.35917E-06 25019   0.677E-03
   7 F= -.39680073E+03 E0= -.39680256E+03  d E =-.780357E-02
 trial-energy change:   -0.007804  1 .order   -0.007827   -0.009206   -0.006448
 step:   3.8604(harm=  3.2840)  dis= 0.15560  next Energy=  -396.809570 (dE=-0.166E-01)
 bond charge predicted
       N       E                     dE             d eps       ncg     rms          rms(c)
RMM:   1    -0.396816219500E+03   -0.15488E-01   -0.53946E+00 35763   0.586E+00    0.554E-01
RMM:   2    -0.396811840604E+03    0.43789E-02   -0.12237E-01 37526   0.162E+00    0.435E-01
RMM:   3    -0.396818902417E+03   -0.70618E-02   -0.31231E-02 47688   0.498E-01    0.703E-01
RMM:   4    -0.396812766874E+03    0.61355E-02   -0.91946E-03 41418   0.341E-01    0.441E-01
RMM:   5    -0.396811463258E+03    0.13036E-02   -0.60594E-03 38787   0.306E-01    0.283E-01
RMM:   6    -0.396811649040E+03   -0.18578E-03   -0.53033E-03 43533   0.227E-01    0.231E-01
RMM:   7    -0.396810930628E+03    0.71841E-03   -0.19311E-03 38018   0.171E-01    0.115E-01
RMM:   8    -0.396810818495E+03    0.11213E-03   -0.84475E-04 44288   0.832E-02    0.700E-02
RMM:   9    -0.396810823181E+03   -0.46860E-05   -0.45418E-04 41334   0.692E-02    0.628E-02
RMM:  10    -0.396810765985E+03    0.57196E-04   -0.21546E-04 45847   0.371E-02    0.178E-02
RMM:  11    -0.396810771853E+03   -0.58676E-05   -0.66425E-05 39605   0.168E-02    0.218E-02
RMM:  12    -0.396810768123E+03    0.37300E-05   -0.19658E-05 31189   0.126E-02    0.883E-03
RMM:  13    -0.396810769351E+03   -0.12284E-05   -0.12550E-05 32883   0.718E-03    0.480E-03
RMM:  14    -0.396810769910E+03   -0.55950E-06   -0.19743E-06 23041   0.560E-03
   8 F= -.39681077E+03 E0= -.39681274E+03  d E =-.178415E-01
 curvature:  -6.95 expect dE=-0.889E-02 dE for cont linesearch -0.159E-03
 ZBRENT: extrapolating
 opt :   4.3682  next Energy=  -396.811020 (dE=-0.181E-01)
 bond charge predicted
       N       E                     dE             d eps       ncg     rms          rms(c)
RMM:   1    -0.396810779577E+03   -0.10226E-04   -0.17007E-01 35813   0.105E+00    0.983E-02
RMM:   2    -0.396811089317E+03   -0.30974E-03   -0.34652E-03 36867   0.289E-01    0.682E-02
RMM:   3    -0.396811408559E+03   -0.31924E-03   -0.10440E-03 46037   0.997E-02    0.133E-01
RMM:   4    -0.396811158085E+03    0.25047E-03   -0.31639E-04 40085   0.674E-02    0.659E-02
RMM:   5    -0.396811133458E+03    0.24627E-04   -0.19893E-04 39019   0.484E-02    0.415E-02
RMM:   6    -0.396811128315E+03    0.51436E-05   -0.92437E-05 44736   0.249E-02    0.263E-02
RMM:   7    -0.396811117853E+03    0.10462E-04   -0.29017E-05 33941   0.168E-02    0.125E-02
RMM:   8    -0.396811117030E+03    0.82342E-06   -0.10869E-05 28973   0.860E-03    0.771E-03
RMM:   9    -0.396811117414E+03   -0.38423E-06   -0.50518E-06 26414   0.789E-03
   9 F= -.39681112E+03 E0= -.39681311E+03  d E =-.181891E-01
 curvature: -10.91 expect dE=-0.199E-01 dE for cont linesearch -0.318E-04
 trial: gam= 0.36393 g(F)=  0.182E-02 g(S)=  0.000E+00 ort = 0.351E-03 (trialstep = 0.166E+01)
 search vector abs. value=  0.767E-02
 bond charge predicted
       N       E                     dE             d eps       ncg     rms          rms(c)
RMM:   1    -0.396813598441E+03   -0.24814E-02   -0.33112E-01 35760   0.146E+00    0.169E-01
RMM:   2    -0.396814106427E+03   -0.50799E-03   -0.93431E-03 37005   0.507E-01    0.130E-01
RMM:   3    -0.396814910958E+03   -0.80453E-03   -0.29478E-03 46022   0.163E-01    0.231E-01
RMM:   4    -0.396814365945E+03    0.54501E-03   -0.11802E-03 41661   0.121E-01    0.172E-01
RMM:   5    -0.396814043061E+03    0.32288E-03   -0.56202E-04 37393   0.988E-02    0.516E-02
RMM:   6    -0.396814071345E+03   -0.28283E-04   -0.38252E-04 46953   0.463E-02    0.550E-02
RMM:   7    -0.396814033456E+03    0.37888E-04   -0.13808E-04 39009   0.421E-02    0.330E-02
RMM:   8    -0.396814023927E+03    0.95294E-05   -0.57559E-05 41321   0.234E-02    0.170E-02
RMM:   9    -0.396814025156E+03   -0.12287E-05   -0.32291E-05 36347   0.152E-02    0.135E-02
RMM:  10    -0.396814023221E+03    0.19345E-05   -0.10113E-05 28937   0.926E-03    0.769E-03
RMM:  11    -0.396814023389E+03   -0.16730E-06   -0.45428E-06 25447   0.804E-03
  10 F= -.39681402E+03 E0= -.39681605E+03  d E =-.290597E-02
 trial-energy change:   -0.002906  1 .order   -0.002886   -0.003236   -0.002536
 step:   5.4875(harm=  7.6731)  dis= 0.08061  next Energy=  -396.817191 (dE=-0.607E-02)
 bond charge predicted
       N       E                     dE             d eps       ncg     rms          rms(c)
RMM:   1    -0.396817353155E+03   -0.33299E-02   -0.17350E+00 35760   0.333E+00    0.412E-01
RMM:   2    -0.396818408054E+03   -0.10549E-02   -0.55344E-02 37556   0.122E+00    0.312E-01
RMM:   3    -0.396823126739E+03   -0.47187E-02   -0.17466E-02 46755   0.378E-01    0.562E-01
RMM:   4    -0.396819451359E+03    0.36754E-02   -0.62755E-03 40965   0.288E-01    0.389E-01
RMM:   5    -0.396817859291E+03    0.15921E-02   -0.30740E-03 37748   0.230E-01    0.143E-01
RMM:   6    -0.396818076653E+03   -0.21736E-03   -0.23820E-03 45585   0.132E-01    0.155E-01
RMM:   7    -0.396817743944E+03    0.33271E-03   -0.91589E-04 38666   0.112E-01    0.782E-02
RMM:   8    -0.396817707490E+03    0.36455E-04   -0.42827E-04 43861   0.595E-02    0.502E-02
RMM:   9    -0.396817706069E+03    0.14206E-05   -0.20271E-04 43151   0.421E-02    0.349E-02
RMM:  10    -0.396817694558E+03    0.11511E-04   -0.79820E-05 44817   0.215E-02    0.181E-02
RMM:  11    -0.396817695341E+03   -0.78315E-06   -0.26970E-05 32068   0.147E-02    0.164E-02
RMM:  12    -0.396817694054E+03    0.12867E-05   -0.11574E-05 28970   0.964E-03    0.495E-03
RMM:  13    -0.396817696487E+03   -0.24327E-05   -0.66425E-06 29044   0.557E-03    0.399E-03
RMM:  14    -0.396817698307E+03   -0.18202E-05   -0.91400E-07 21215   0.478E-03    0.213E-03
RMM:  15    -0.396817699278E+03   -0.97077E-06   -0.47767E-07 21151   0.266E-03
  11 F= -.39681770E+03 E0= -.39681975E+03  d E =-.658186E-02
 curvature: -13.11 expect dE=-0.379E-01 dE for cont linesearch -0.205E-03
 trial: gam= 1.55728 g(F)=  0.289E-02 g(S)=  0.000E+00 ort = 0.347E-03 (trialstep = 0.824E+00)
 search vector abs. value=  0.226E-01
 bond charge predicted
       N       E                     dE             d eps       ncg     rms          rms(c)
RMM:   1    -0.396819937708E+03   -0.22394E-02   -0.23455E-01 35791   0.123E+00    0.131E-01
RMM:   2    -0.396820400119E+03   -0.46241E-03   -0.61481E-03 37283   0.400E-01    0.966E-02
RMM:   3    -0.396820950273E+03   -0.55015E-03   -0.18516E-03 46953   0.123E-01    0.178E-01
RMM:   4    -0.396820570897E+03    0.37938E-03   -0.64087E-04 41556   0.895E-02    0.120E-01
RMM:   5    -0.396820428920E+03    0.14198E-03   -0.35587E-04 37464   0.768E-02    0.493E-02
RMM:   6    -0.396820434836E+03   -0.59160E-05   -0.22248E-04 45422   0.393E-02    0.416E-02
RMM:   7    -0.396820415724E+03    0.19112E-04   -0.81737E-05 39050   0.307E-02    0.248E-02
RMM:   8    -0.396820410486E+03    0.52381E-05   -0.31441E-05 35796   0.162E-02    0.126E-02
RMM:   9    -0.396820411100E+03   -0.61474E-06   -0.15340E-05 31346   0.110E-02    0.941E-03
RMM:  10    -0.396820411582E+03   -0.48189E-06   -0.54838E-06 26594   0.756E-03
  12 F= -.39682041E+03 E0= -.39682246E+03  d E =-.271230E-02
 ZBRENT: can't locate minimum, use default step
 trial-energy change:   -0.002712  1 .order   -0.002699   -0.002830   -0.002568
 step:   3.2979(harm=  8.8998)  dis= 0.07279  next Energy=  -396.832972 (dE=-0.153E-01)
 bond charge predicted
       N       E                     dE             d eps       ncg     rms          rms(c)
RMM:   1    -0.396825072418E+03   -0.46613E-02   -0.20916E+00 35760   0.364E+00    0.430E-01
RMM:   2    -0.396827192513E+03   -0.21201E-02   -0.64579E-02 37522   0.129E+00    0.335E-01
RMM:   3    -0.396831787516E+03   -0.45950E-02   -0.18079E-02 46617   0.385E-01    0.556E-01
RMM:   4    -0.396828480888E+03    0.33066E-02   -0.63853E-03 41243   0.287E-01    0.400E-01
RMM:   5    -0.396826962770E+03    0.15181E-02   -0.37785E-03 37455   0.255E-01    0.179E-01
RMM:   6    -0.396827084293E+03   -0.12152E-03   -0.25492E-03 43943   0.151E-01    0.162E-01
RMM:   7    -0.396826763463E+03    0.32083E-03   -0.10121E-03 38653   0.116E-01    0.888E-02
RMM:   8    -0.396826703928E+03    0.59536E-04   -0.45374E-04 43841   0.598E-02    0.501E-02
RMM:   9    -0.396826698993E+03    0.49349E-05   -0.19465E-04 43752   0.394E-02    0.326E-02
RMM:  10    -0.396826693314E+03    0.56790E-05   -0.83684E-05 45744   0.198E-02    0.163E-02
RMM:  11    -0.396826695454E+03   -0.21402E-05   -0.25939E-05 32935   0.142E-02    0.176E-02
RMM:  12    -0.396826693632E+03    0.18217E-05   -0.10562E-05 28386   0.112E-02    0.558E-03
RMM:  13    -0.396826696091E+03   -0.24589E-05   -0.84867E-06 29718   0.566E-03    0.383E-03
RMM:  14    -0.396826697926E+03   -0.18346E-05   -0.93078E-07 21432   0.478E-03    0.190E-03
RMM:  15    -0.396826698922E+03   -0.99568E-06   -0.47209E-07 21227   0.259E-03
  13 F= -.39682670E+03 E0= -.39682870E+03  d E =-.899964E-02
 curvature: -15.19 expect dE=-0.273E-01 dE for cont linesearch -0.228E-02
 ZBRENT: increasing intervall
 opt :   8.2447  next Energy=  -396.829510 (dE=-0.118E-01)
 bond charge predicted
       N       E                     dE             d eps       ncg     rms          rms(c)
RMM:   1    -0.396848167202E+03   -0.21469E-01   -0.82380E+00 35760   0.706E+00    0.972E-01
RMM:   2    -0.396827424187E+03    0.20743E-01   -0.32867E-01 38416   0.288E+00    0.771E-01
RMM:   3    -0.396848095422E+03   -0.20671E-01   -0.87606E-02 46926   0.845E-01    0.123E+00
RMM:   4    -0.396830516996E+03    0.17578E-01   -0.27383E-02 41513   0.599E-01    0.807E-01
RMM:   5    -0.396825792712E+03    0.47243E-02   -0.18663E-02 38155   0.558E-01    0.493E-01
RMM:   6    -0.396825779880E+03    0.12832E-04   -0.14197E-02 42671   0.398E-01    0.400E-01
RMM:   7    -0.396823913721E+03    0.18662E-02   -0.57971E-03 38721   0.291E-01    0.213E-01
RMM:   8    -0.396823528815E+03    0.38491E-03   -0.25539E-03 44333   0.143E-01    0.126E-01
RMM:   9    -0.396823482450E+03    0.46365E-04   -0.10728E-03 42280   0.102E-01    0.865E-02
RMM:  10    -0.396823417535E+03    0.64915E-04   -0.53276E-04 47365   0.503E-02    0.373E-02
RMM:  11    -0.396823429466E+03   -0.11930E-04   -0.15388E-04 42412   0.325E-02    0.410E-02
RMM:  12    -0.396823417184E+03    0.12282E-04   -0.58670E-05 40882   0.243E-02    0.123E-02
RMM:  13    -0.396823428445E+03   -0.11261E-04   -0.46357E-05 40602   0.107E-02    0.956E-03
RMM:  14    -0.396823434105E+03   -0.56605E-05   -0.69033E-06 27845   0.770E-03    0.368E-03
RMM:  15    -0.396823437736E+03   -0.36301E-05   -0.19853E-06 23038   0.434E-03    0.177E-03
RMM:  16    -0.396823441378E+03   -0.36426E-05   -0.96042E-07 21589   0.364E-03    0.139E-03
RMM:  17    -0.396823446861E+03   -0.54826E-05   -0.10010E-06 21874   0.293E-03    0.968E-04
RMM:  18    -0.396823449424E+03   -0.25634E-05   -0.48816E-07 20916   0.258E-03    0.484E-04
RMM:  19    -0.396823452294E+03   -0.28698E-05   -0.48665E-07 16611   0.163E-03    0.464E-04
RMM:  20    -0.396823455853E+03   -0.35595E-05   -0.74470E-07 18279   0.181E-03    0.452E-04
RMM:  21    -0.396823456775E+03   -0.92128E-06   -0.30564E-07 15899   0.162E-03
  14 F= -.39682346E+03 E0= -.39682550E+03  d E =-.575750E-02
 curvature: -18.73 expect dE=-0.538E-01 dE for cont linesearch -0.146E-01
 ZBRENT: bracketing found
 ZBRENT: interpolating
 opt :   4.8081  next Energy=  -396.828089 (dE=-0.104E-01)
 bond charge predicted
       N       E                     dE             d eps       ncg     rms          rms(c)
RMM:   1    -0.396828752539E+03   -0.52967E-02   -0.41462E+00 35868   0.505E+00    0.593E-01
RMM:   2    -0.396828728596E+03    0.23943E-04   -0.14507E-01 37458   0.202E+00    0.465E-01
RMM:   3    -0.396837867779E+03   -0.91392E-02   -0.36312E-02 47955   0.518E-01    0.794E-01
RMM:   4    -0.396831423871E+03    0.64439E-02   -0.15331E-02 42546   0.424E-01    0.418E-01
RMM:   5    -0.396830053781E+03    0.13701E-02   -0.84470E-03 42210   0.308E-01    0.339E-01
RMM:   6    -0.396828853580E+03    0.12002E-02   -0.32873E-03 39406   0.223E-01    0.139E-01
RMM:   7    -0.396828749562E+03    0.10402E-03   -0.19939E-03 46742   0.103E-01    0.103E-01
RMM:   8    -0.396828670213E+03    0.79348E-04   -0.64211E-04 39917   0.897E-02    0.668E-02
RMM:   9    -0.396828628126E+03    0.42087E-04   -0.26727E-04 45142   0.436E-02    0.254E-02
RMM:  10    -0.396828628585E+03   -0.45885E-06   -0.10445E-04 46152   0.211E-02    0.229E-02
RMM:  11    -0.396828629819E+03   -0.12347E-05   -0.41003E-05 36340   0.197E-02    0.205E-02
RMM:  12    -0.396828629825E+03   -0.56261E-08   -0.19575E-05 32502   0.151E-02    0.140E-02
RMM:  13    -0.396828627579E+03    0.22455E-05   -0.86465E-06 26663   0.905E-03    0.544E-03
RMM:  14    -0.396828628848E+03   -0.12690E-05   -0.40473E-06 26353   0.467E-03    0.288E-03
RMM:  15    -0.396828629483E+03   -0.63453E-06   -0.68774E-07 21199   0.357E-03
  15 F= -.39682863E+03 E0= -.39683062E+03  d E =-.109302E-01
 curvature:  -1.79 expect dE=-0.299E-02 dE for cont linesearch -0.306E-04
 ZBRENT: interpolating
 opt :   5.4785  next Energy=  -396.828865 (dE=-0.112E-01)
 bond charge predicted
       N       E                     dE             d eps       ncg     rms          rms(c)
RMM:   1    -0.396828420647E+03    0.20820E-03   -0.15458E-01 35760   0.986E-01    0.120E-01
RMM:   2    -0.396828813922E+03   -0.39327E-03   -0.52674E-03 37357   0.386E-01    0.868E-02
RMM:   3    -0.396829213183E+03   -0.39926E-03   -0.14489E-03 48050   0.102E-01    0.148E-01
RMM:   4    -0.396828930012E+03    0.28317E-03   -0.48742E-04 42165   0.761E-02    0.933E-02
RMM:   5    -0.396828876108E+03    0.53905E-04   -0.33913E-04 38137   0.711E-02    0.667E-02
RMM:   6    -0.396828844051E+03    0.32057E-04   -0.15858E-04 42028   0.444E-02    0.355E-02
RMM:   7    -0.396828835949E+03    0.81020E-05   -0.84169E-05 41626   0.267E-02    0.253E-02
RMM:   8    -0.396828829043E+03    0.69064E-05   -0.25077E-05 34431   0.151E-02    0.117E-02
RMM:   9    -0.396828829424E+03   -0.38156E-06   -0.12576E-05 30297   0.102E-02    0.884E-03
RMM:  10    -0.396828828981E+03    0.44295E-06   -0.49083E-06 26900   0.696E-03
  16 F= -.39682883E+03 E0= -.39683082E+03  d E =-.111297E-01
 curvature: -13.75 expect dE=-0.233E-01 dE for cont linesearch -0.436E-05
 trial: gam=-0.06689 g(F)=  0.170E-02 g(S)=  0.000E+00 ort =-0.847E-04 (trialstep = 0.176E+01)
 search vector abs. value=  0.181E-02
 bond charge predicted
       N       E                     dE             d eps       ncg     rms          rms(c)
RMM:   1    -0.396831124992E+03   -0.22956E-02   -0.88242E-02 35935   0.736E-01    0.829E-02
RMM:   2    -0.396831340337E+03   -0.21534E-03   -0.29442E-03 37444   0.273E-01    0.554E-02
RMM:   3    -0.396831383437E+03   -0.43100E-04   -0.63572E-04 49705   0.595E-02    0.472E-02
RMM:   4    -0.396831370609E+03    0.12828E-04   -0.16772E-04 42058   0.445E-02    0.453E-02
RMM:   5    -0.396831350276E+03    0.20333E-04   -0.86678E-05 42563   0.299E-02    0.323E-02
RMM:   6    -0.396831346080E+03    0.41965E-05   -0.44587E-05 39030   0.231E-02    0.269E-02
RMM:   7    -0.396831338412E+03    0.76672E-05   -0.20800E-05 36135   0.158E-02    0.114E-02
RMM:   8    -0.396831337265E+03    0.11478E-05   -0.11112E-05 32497   0.947E-03    0.723E-03
RMM:   9    -0.396831336348E+03    0.91715E-06   -0.24868E-06 23863   0.578E-03
  17 F= -.39683134E+03 E0= -.39683333E+03  d E =-.250737E-02
 trial-energy change:   -0.002507  1 .order   -0.002504   -0.002990   -0.002018
 step:   5.3990(harm=  5.3990)  dis= 0.00447  next Energy=  -396.833428 (dE=-0.460E-02)
 bond charge predicted
       N       E                     dE             d eps       ncg     rms          rms(c)
RMM:   1    -0.396832422402E+03   -0.10851E-02   -0.38308E-01 35922   0.153E+00    0.173E-01
RMM:   2    -0.396833344199E+03   -0.92180E-03   -0.12749E-02 37514   0.563E-01    0.120E-01
RMM:   3    -0.396833750645E+03   -0.40645E-03   -0.30100E-03 47967   0.154E-01    0.182E-01
RMM:   4    -0.396833582684E+03    0.16796E-03   -0.10850E-03 39374   0.129E-01    0.130E-01
RMM:   5    -0.396833392891E+03    0.18979E-03   -0.55461E-04 46608   0.584E-02    0.651E-02
RMM:   6    -0.396833336064E+03    0.56827E-04   -0.20962E-04 41674   0.493E-02    0.497E-02
RMM:   7    -0.396833311564E+03    0.24500E-04   -0.10984E-04 43123   0.347E-02    0.276E-02
RMM:   8    -0.396833302851E+03    0.87129E-05   -0.57505E-05 44062   0.224E-02    0.151E-02
RMM:   9    -0.396833301554E+03    0.12977E-05   -0.17753E-05 33379   0.119E-02    0.119E-02
RMM:  10    -0.396833300557E+03    0.99659E-06   -0.61954E-06 25659   0.930E-03
  18 F= -.39683330E+03 E0= -.39683529E+03  d E =-.447158E-02
 curvature:  -2.87 expect dE=-0.837E-02 dE for cont linesearch -0.125E-04
 trial: gam= 1.73855 g(F)=  0.292E-02 g(S)=  0.000E+00 ort =-0.889E-04 (trialstep = 0.557E+00)
 search vector abs. value=  0.808E-02
 bond charge predicted
       N       E                     dE             d eps       ncg     rms          rms(c)
RMM:   1    -0.396834702770E+03   -0.14012E-02   -0.38620E-02 35760   0.490E-01    0.472E-02
RMM:   2    -0.396834791047E+03   -0.88277E-04   -0.83362E-04 36427   0.146E-01    0.393E-02
RMM:   3    -0.396834849356E+03   -0.58309E-04   -0.19559E-04 42572   0.464E-02    0.670E-02
RMM:   4    -0.396834805119E+03    0.44236E-04   -0.83031E-05 42775   0.324E-02    0.310E-02
RMM:   5    -0.396834803537E+03    0.15819E-05   -0.60503E-05 38133   0.292E-02    0.324E-02
RMM:   6    -0.396834790989E+03    0.12548E-04   -0.20778E-05 33532   0.176E-02    0.567E-03
RMM:   7    -0.396834791711E+03   -0.72156E-06   -0.98891E-06 27098   0.612E-03
  19 F= -.39683479E+03 E0= -.39683678E+03  d E =-.149115E-02
 ZBRENT: can't locate minimum, use default step
 trial-energy change:   -0.001491  1 .order   -0.001488   -0.001537   -0.001440
 step:   2.2265(harm=  8.7883)  dis= 0.02309  next Energy=  -396.845435 (dE=-0.121E-01)
 bond charge predicted
       N       E                     dE             d eps       ncg     rms          rms(c)
RMM:   1    -0.396838005006E+03   -0.32140E-02   -0.34785E-01 35760   0.147E+00    0.140E-01
RMM:   2    -0.396838693757E+03   -0.68875E-03   -0.73026E-03 36884   0.422E-01    0.113E-01
RMM:   3    -0.396839253754E+03   -0.56000E-03   -0.17085E-03 43424   0.134E-01    0.195E-01
RMM:   4    -0.396838919460E+03    0.33429E-03   -0.88362E-04 42175   0.107E-01    0.131E-01
RMM:   5    -0.396838724250E+03    0.19521E-03   -0.47516E-04 37205   0.908E-02    0.540E-02
RMM:   6    -0.396838695112E+03    0.29138E-04   -0.18028E-04 44877   0.336E-02    0.182E-02
RMM:   7    -0.396838700802E+03   -0.56895E-05   -0.63539E-05 38791   0.212E-02    0.257E-02
RMM:   8    -0.396838692859E+03    0.79432E-05   -0.15188E-05 29541   0.146E-02    0.652E-03
RMM:   9    -0.396838694294E+03   -0.14355E-05   -0.14368E-05 31687   0.689E-03    0.723E-03
RMM:  10    -0.396838694305E+03   -0.10665E-07   -0.33250E-06 24605   0.758E-03
  20 F= -.39683869E+03 E0= -.39684069E+03  d E =-.539375E-02
 curvature:  -4.69 expect dE=-0.815E-02 dE for cont linesearch -0.251E-02
 ZBRENT: increasing intervall
 opt :   5.5663  next Energy=  -396.843936 (dE=-0.106E-01)
 bond charge predicted
       N       E                     dE             d eps       ncg     rms          rms(c)
RMM:   1    -0.396842416713E+03   -0.37224E-02   -0.13920E+00 35760   0.292E+00    0.281E-01
RMM:   2    -0.396844086911E+03   -0.16702E-02   -0.29558E-02 37274   0.832E-01    0.237E-01
RMM:   3    -0.396845897348E+03   -0.18104E-02   -0.67645E-03 44481   0.254E-01    0.372E-01
RMM:   4    -0.396844790634E+03    0.11067E-02   -0.35217E-03 41407   0.216E-01    0.257E-01
RMM:   5    -0.396844050514E+03    0.74012E-03   -0.18749E-03 37371   0.183E-01    0.115E-01
RMM:   6    -0.396843917082E+03    0.13343E-03   -0.72701E-04 43463   0.804E-02    0.521E-02
RMM:   7    -0.396843934003E+03   -0.16921E-04   -0.32091E-04 41396   0.510E-02    0.576E-02
RMM:   8    -0.396843893625E+03    0.40377E-04   -0.86853E-05 37093   0.336E-02    0.186E-02
RMM:   9    -0.396843901026E+03   -0.74002E-05   -0.74109E-05 43507   0.183E-02    0.189E-02
RMM:  10    -0.396843896765E+03    0.42611E-05   -0.23648E-05 35652   0.127E-02    0.103E-02
RMM:  11    -0.396843896990E+03   -0.22508E-06   -0.91695E-06 27378   0.901E-03
  21 F= -.39684390E+03 E0= -.39684590E+03  d E =-.105964E-01
 curvature:  -9.81 expect dE=-0.481E-02 dE for cont linesearch -0.128E-02
 ZBRENT: increasing intervall
 opt :  12.2459  next Energy=  -396.843741 (dE=-0.104E-01)
 bond charge predicted
       N       E                     dE             d eps       ncg     rms          rms(c)
RMM:   1    -0.396854664583E+03   -0.10768E-01   -0.55592E+00 35828   0.579E+00    0.587E-01
RMM:   2    -0.396845770007E+03    0.88946E-02   -0.13204E-01 37767   0.171E+00    0.535E-01
RMM:   3    -0.396851006831E+03   -0.52368E-02   -0.31007E-02 45670   0.533E-01    0.733E-01
RMM:   4    -0.396846491583E+03    0.45152E-02   -0.12443E-02 40447   0.412E-01    0.499E-01
RMM:   5    -0.396844066061E+03    0.24255E-02   -0.72452E-03 37892   0.357E-01    0.267E-01
RMM:   6    -0.396843833304E+03    0.23276E-03   -0.42852E-03 42944   0.208E-01    0.186E-01
RMM:   7    -0.396843534129E+03    0.29917E-03   -0.16538E-03 38972   0.148E-01    0.131E-01
RMM:   8    -0.396843341429E+03    0.19270E-03   -0.65399E-04 41412   0.834E-02    0.583E-02
RMM:   9    -0.396843370090E+03   -0.28662E-04   -0.43090E-04 44970   0.528E-02    0.520E-02
RMM:  10    -0.396843335162E+03    0.34928E-04   -0.15842E-04 46449   0.306E-02    0.185E-02
RMM:  11    -0.396843339205E+03   -0.40430E-05   -0.58730E-05 40254   0.171E-02    0.218E-02
RMM:  12    -0.396843335854E+03    0.33516E-05   -0.21717E-05 32913   0.149E-02    0.107E-02
RMM:  13    -0.396843336404E+03   -0.55033E-06   -0.15232E-05 33017   0.757E-03    0.550E-03
RMM:  14    -0.396843336127E+03    0.27669E-06   -0.22111E-06 24294   0.535E-03
  22 F= -.39684334E+03 E0= -.39684535E+03  d E =-.100356E-01
 curvature:   1.19 expect dE= 0.170E-02 dE for cont linesearch  0.235E-03
 ZBRENT: bracketing found
 ZBRENT: interpolating
 opt :   8.5666  next Energy=  -396.845438 (dE=-0.121E-01)
 bond charge predicted
       N       E                     dE             d eps       ncg     rms          rms(c)
RMM:   1    -0.396843698225E+03   -0.36182E-03   -0.16870E+00 35760   0.321E+00    0.305E-01
RMM:   2    -0.396845372258E+03   -0.16740E-02   -0.37040E-02 37066   0.944E-01    0.222E-01
RMM:   3    -0.396847803755E+03   -0.24315E-02   -0.99248E-03 44679   0.328E-01    0.434E-01
RMM:   4    -0.396846099553E+03    0.17042E-02   -0.37012E-03 38903   0.251E-01    0.170E-01
RMM:   5    -0.396845872118E+03    0.22744E-03   -0.20700E-03 47426   0.103E-01    0.145E-01
RMM:   6    -0.396845575902E+03    0.29622E-03   -0.60263E-04 39743   0.885E-02    0.608E-02
RMM:   7    -0.396845548917E+03    0.26985E-04   -0.30288E-04 45549   0.446E-02    0.327E-02
RMM:   8    -0.396845539097E+03    0.98198E-05   -0.12568E-04 47455   0.265E-02    0.217E-02
RMM:   9    -0.396845543007E+03   -0.39093E-05   -0.44243E-05 38229   0.210E-02    0.259E-02
RMM:  10    -0.396845536425E+03    0.65814E-05   -0.15237E-05 29764   0.149E-02    0.104E-02
RMM:  11    -0.396845537246E+03   -0.82087E-06   -0.13108E-05 29665   0.687E-03    0.605E-03
RMM:  12    -0.396845537015E+03    0.23151E-06   -0.31503E-06 24520   0.708E-03
  23 F= -.39684554E+03 E0= -.39684754E+03  d E =-.122365E-01
 curvature:  -7.84 expect dE=-0.189E-02 dE for cont linesearch -0.206E-05
 trial: gam= 0.12986 g(F)=  0.241E-03 g(S)=  0.000E+00 ort = 0.461E-04 (trialstep = 0.216E+01)
 search vector abs. value=  0.389E-03
 bond charge predicted
       N       E                     dE             d eps       ncg     rms          rms(c)
RMM:   1    -0.396845961723E+03   -0.42448E-03   -0.27756E-02 35884   0.413E-01    0.414E-02
RMM:   2    -0.396846023078E+03   -0.61355E-04   -0.59474E-04 36848   0.117E-01    0.306E-02
RMM:   3    -0.396846092972E+03   -0.69894E-04   -0.17577E-04 46979   0.373E-02    0.662E-02
RMM:   4    -0.396846030947E+03    0.62025E-04   -0.57279E-05 39334   0.294E-02    0.222E-02
RMM:   5    -0.396846031598E+03   -0.65086E-06   -0.35841E-05 39028   0.215E-02    0.207E-02
RMM:   6    -0.396846028914E+03    0.26840E-05   -0.15572E-05 31913   0.153E-02    0.126E-02
RMM:   7    -0.396846026888E+03    0.20265E-05   -0.72178E-06 26618   0.849E-03    0.545E-03
RMM:   8    -0.396846026703E+03    0.18480E-06   -0.15805E-06 23064   0.467E-03
  24 F= -.39684603E+03 E0= -.39684804E+03  d E =-.489688E-03
 ZBRENT: can't locate minimum, use default step
 trial-energy change:   -0.000490  1 .order   -0.000487   -0.000533   -0.000441
 step:   8.6345(harm= 12.4027)  dis= 0.02709  next Energy=  -396.847069 (dE=-0.153E-02)
 bond charge predicted
       N       E                     dE             d eps       ncg     rms          rms(c)
RMM:   1    -0.396846403325E+03   -0.37644E-03   -0.24963E-01 35872   0.124E+00    0.126E-01
RMM:   2    -0.396846924732E+03   -0.52141E-03   -0.56217E-03 37284   0.351E-01    0.942E-02
RMM:   3    -0.396847514919E+03   -0.59019E-03   -0.16240E-03 45860   0.122E-01    0.192E-01
RMM:   4    -0.396847078869E+03    0.43605E-03   -0.58436E-04 40575   0.905E-02    0.106E-01
RMM:   5    -0.396846964517E+03    0.11435E-03   -0.30722E-04 37343   0.717E-02    0.423E-02
RMM:   6    -0.396846974104E+03   -0.95869E-05   -0.19386E-04 45719   0.339E-02    0.380E-02
RMM:   7    -0.396846956050E+03    0.18053E-04   -0.55252E-05 37272   0.257E-02    0.203E-02
RMM:   8    -0.396846952570E+03    0.34800E-05   -0.24458E-05 33329   0.115E-02    0.853E-03
RMM:   9    -0.396846953194E+03   -0.62309E-06   -0.88055E-06 28195   0.823E-03
  25 F= -.39684695E+03 E0= -.39684900E+03  d E =-.141618E-02
 curvature:  -8.45 expect dE=-0.295E-02 dE for cont linesearch -0.132E-03
 ZBRENT: increasing intervall
 opt :  21.5864  next Energy=  -396.846334 (dE=-0.797E-03)
 bond charge predicted
       N       E                     dE             d eps       ncg     rms          rms(c)
RMM:   1    -0.396844560271E+03    0.23923E-02   -0.99806E-01 35837   0.246E+00    0.268E-01
RMM:   2    -0.396846334402E+03   -0.17741E-02   -0.24818E-02 37069   0.748E-01    0.211E-01
RMM:   3    -0.396848508408E+03   -0.21740E-02   -0.67192E-03 45196   0.251E-01    0.382E-01
RMM:   4    -0.396847042414E+03    0.14660E-02   -0.26860E-03 40438   0.195E-01    0.245E-01
RMM:   5    -0.396846397951E+03    0.64446E-03   -0.14898E-03 37028   0.163E-01    0.914E-02
RMM:   6    -0.396846436182E+03   -0.38231E-04   -0.86327E-04 45417   0.749E-02    0.822E-02
RMM:   7    -0.396846360499E+03    0.75683E-04   -0.26555E-04 38214   0.577E-02    0.487E-02
RMM:   8    -0.396846338993E+03    0.21507E-04   -0.12148E-04 44259   0.273E-02    0.175E-02
RMM:   9    -0.396846343626E+03   -0.46328E-05   -0.50932E-05 39948   0.164E-02    0.166E-02
RMM:  10    -0.396846341929E+03    0.16965E-05   -0.17595E-05 36148   0.101E-02    0.762E-03
RMM:  11    -0.396846342205E+03   -0.27549E-06   -0.55481E-06 26656   0.605E-03
  26 F= -.39684634E+03 E0= -.39684847E+03  d E =-.805190E-03
 curvature:  39.52 expect dE= 0.731E-01 dE for cont linesearch  0.320E-02
 ZBRENT: bracketing found
 ZBRENT: interpolating
 opt :  12.5920  next Energy=  -396.847108 (dE=-0.157E-02)
 bond charge predicted
       N       E                     dE             d eps       ncg     rms          rms(c)
RMM:   1    -0.396846165814E+03    0.17612E-03   -0.48568E-01 35891   0.172E+00    0.180E-01
RMM:   2    -0.396847033355E+03   -0.86754E-03   -0.11247E-02 37086   0.510E-01    0.130E-01
RMM:   3    -0.396848213443E+03   -0.11801E-02   -0.34753E-03 44226   0.194E-01    0.281E-01
RMM:   4    -0.396847233857E+03    0.97959E-03   -0.11084E-03 40138   0.133E-01    0.100E-01
RMM:   5    -0.396847165862E+03    0.67995E-04   -0.57669E-04 40890   0.752E-02    0.660E-02
RMM:   6    -0.396847128837E+03    0.37025E-04   -0.23228E-04 45565   0.396E-02    0.323E-02
RMM:   7    -0.396847124992E+03    0.38446E-05   -0.88630E-05 40738   0.302E-02    0.277E-02
RMM:   8    -0.396847116962E+03    0.80309E-05   -0.35974E-05 38590   0.161E-02    0.808E-03
RMM:   9    -0.396847117632E+03   -0.67037E-06   -0.13004E-05 29586   0.576E-03    0.519E-03
RMM:  10    -0.396847118085E+03   -0.45277E-06   -0.28513E-06 24499   0.634E-03
  27 F= -.39684712E+03 E0= -.39684919E+03  d E =-.158107E-02
 curvature:  -1.91 expect dE=-0.127E-02 dE for cont linesearch -0.461E-07
 trial: gam= 2.76212 g(F)=  0.666E-03 g(S)=  0.000E+00 ort = 0.307E-05 (trialstep = 0.452E+00)
 search vector abs. value=  0.365E-02
 bond charge predicted
       N       E                     dE             d eps       ncg     rms          rms(c)
RMM:   1    -0.396847368369E+03   -0.25074E-03   -0.11502E-02 35760   0.266E-01    0.325E-02
RMM:   2    -0.396847396896E+03   -0.28527E-04   -0.40577E-04 36029   0.112E-01    0.218E-02
RMM:   3    -0.396847412662E+03   -0.15766E-04   -0.10288E-04 46217   0.295E-02    0.336E-02
RMM:   4    -0.396847402011E+03    0.10651E-04   -0.32765E-05 36701   0.229E-02    0.176E-02
RMM:   5    -0.396847405169E+03   -0.31580E-05   -0.19731E-05 37032   0.104E-02    0.161E-02
RMM:   6    -0.396847399998E+03    0.51708E-05   -0.76094E-06 28188   0.103E-02    0.112E-02
RMM:   7    -0.396847398602E+03    0.13962E-05   -0.37914E-06 24752   0.976E-03    0.505E-03
RMM:   8    -0.396847398562E+03    0.39448E-07   -0.11945E-06 22052   0.508E-03
  28 F= -.39684740E+03 E0= -.39684948E+03  d E =-.280478E-03
 ZBRENT: can't locate minimum, use default step
 trial-energy change:   -0.000280  1 .order   -0.000281   -0.000305   -0.000256
 step:   1.8098(harm=  2.8237)  dis= 0.02274  next Energy=  -396.848070 (dE=-0.952E-03)
 bond charge predicted
       N       E                     dE             d eps       ncg     rms          rms(c)
RMM:   1    -0.396847697614E+03   -0.29901E-03   -0.10328E-01 35760   0.795E-01    0.962E-02
RMM:   2    -0.396847962018E+03   -0.26440E-03   -0.36723E-03 36779   0.326E-01    0.738E-02
RMM:   3    -0.396848291948E+03   -0.32993E-03   -0.10060E-03 45840   0.938E-02    0.149E-01
RMM:   4    -0.396848026382E+03    0.26557E-03   -0.38563E-04 41241   0.723E-02    0.809E-02
RMM:   5    -0.396847958703E+03    0.67679E-04   -0.17490E-04 37816   0.541E-02    0.307E-02
RMM:   6    -0.396847969615E+03   -0.10911E-04   -0.12368E-04 45558   0.284E-02    0.350E-02
RMM:   7    -0.396847952038E+03    0.17577E-04   -0.39838E-05 36784   0.231E-02    0.151E-02
RMM:   8    -0.396847951265E+03    0.77276E-06   -0.19952E-05 32812   0.111E-02    0.891E-03
RMM:   9    -0.396847951278E+03   -0.12622E-07   -0.72651E-06 27004   0.912E-03
  29 F= -.39684795E+03 E0= -.39685007E+03  d E =-.833193E-03
 curvature:  -6.25 expect dE=-0.875E-03 dE for cont linesearch -0.961E-04
 ZBRENT: increasing intervall
 opt :   4.5245  next Energy=  -396.847701 (dE=-0.583E-03)
 bond charge predicted
       N       E                     dE             d eps       ncg     rms          rms(c)
RMM:   1    -0.396846722004E+03    0.12293E-02   -0.41092E-01 35760   0.158E+00    0.194E-01
RMM:   2    -0.396847692193E+03   -0.97019E-03   -0.15145E-02 37005   0.660E-01    0.147E-01
RMM:   3    -0.396849038140E+03   -0.13459E-02   -0.40341E-03 45609   0.190E-01    0.297E-01
RMM:   4    -0.396847962832E+03    0.10753E-02   -0.14938E-03 41348   0.143E-01    0.164E-01
RMM:   5    -0.396847680477E+03    0.28236E-03   -0.70709E-04 37710   0.110E-01    0.612E-02
RMM:   6    -0.396847718435E+03   -0.37958E-04   -0.48643E-04 46336   0.538E-02    0.669E-02
RMM:   7    -0.396847658271E+03    0.60163E-04   -0.14643E-04 38467   0.445E-02    0.312E-02
RMM:   8    -0.396847654881E+03    0.33905E-05   -0.79995E-05 44321   0.215E-02    0.171E-02
RMM:   9    -0.396847655161E+03   -0.28026E-06   -0.29941E-05 35914   0.159E-02    0.130E-02
RMM:  10    -0.396847653797E+03    0.13640E-05   -0.10804E-05 30123   0.849E-03    0.622E-03
RMM:  11    -0.396847654760E+03   -0.96238E-06   -0.47873E-06 25389   0.828E-03
  30 F= -.39684765E+03 E0= -.39684983E+03  d E =-.536675E-03
 curvature:  16.29 expect dE= 0.382E-02 dE for cont linesearch  0.102E-02
 ZBRENT: bracketing found
 ZBRENT: interpolating
 opt :   2.7100  next Energy=  -396.848058 (dE=-0.940E-03)
 bond charge predicted
       N       E                     dE             d eps       ncg     rms          rms(c)
RMM:   1    -0.396847548778E+03    0.10502E-03   -0.18460E-01 35760   0.106E+00    0.125E-01
RMM:   2    -0.396848056505E+03   -0.50773E-03   -0.66815E-03 36733   0.444E-01    0.903E-02
RMM:   3    -0.396848671097E+03   -0.61459E-03   -0.18549E-03 46533   0.126E-01    0.201E-01
RMM:   4    -0.396848135009E+03    0.53609E-03   -0.60490E-04 41674   0.903E-02    0.782E-02
RMM:   5    -0.396848110291E+03    0.24718E-04   -0.33418E-04 38508   0.668E-02    0.608E-02
RMM:   6    -0.396848082255E+03    0.28036E-04   -0.16568E-04 44240   0.378E-02    0.327E-02
RMM:   7    -0.396848072032E+03    0.10223E-04   -0.69783E-05 41362   0.257E-02    0.216E-02
RMM:   8    -0.396848067839E+03    0.41935E-05   -0.25985E-05 35913   0.154E-02    0.104E-02
RMM:   9    -0.396848068185E+03   -0.34653E-06   -0.11687E-05 28645   0.961E-03    0.841E-03
RMM:  10    -0.396848067370E+03    0.81470E-06   -0.40606E-06 25387   0.771E-03
  31 F= -.39684807E+03 E0= -.39685020E+03  d E =-.949286E-03
 curvature:  -1.71 expect dE=-0.999E-04 dE for cont linesearch -0.155E-06
 ZBRENT: interpolating
 opt :   2.7822  next Energy=  -396.848068 (dE=-0.950E-03)
 bond charge predicted
       N       E                     dE             d eps       ncg     rms          rms(c)
RMM:   1    -0.396848067121E+03    0.10640E-05   -0.28971E-04 36157   0.432E-02    0.876E-03
RMM:   2    -0.396848071315E+03   -0.41935E-05   -0.22152E-05 36168   0.235E-02    0.162E-02
RMM:   3    -0.396848068273E+03    0.30412E-05   -0.65504E-06 26309   0.127E-02    0.769E-03
RMM:   4    -0.396848068130E+03    0.14291E-06   -0.11505E-06 21993   0.466E-03    0.423E-03
RMM:   5    -0.396848068110E+03    0.20018E-07   -0.61281E-07 21041   0.377E-03
  32 F= -.39684807E+03 E0= -.39685021E+03  d E =-.950026E-03
 curvature:  -7.51 expect dE=-0.426E-03 dE for cont linesearch -0.949E-07
 trial: gam=-0.03945 g(F)=  0.568E-04 g(S)=  0.000E+00 ort =-0.680E-05 (trialstep = 0.918E+00)
 search vector abs. value=  0.630E-04
 bond charge predicted
       N       E                     dE             d eps       ncg     rms          rms(c)
RMM:   1    -0.396848117164E+03   -0.49033E-04   -0.81083E-04 35851   0.706E-02    0.895E-03
RMM:   2    -0.396848120584E+03   -0.34204E-05   -0.24734E-05 34547   0.278E-02    0.108E-02
RMM:   3    -0.396848120119E+03    0.46578E-06   -0.51983E-06 25363   0.102E-02    0.922E-03
RMM:   4    -0.396848119663E+03    0.45550E-06   -0.16964E-06 22924   0.668E-03    0.681E-03
RMM:   5    -0.396848119511E+03    0.15168E-06   -0.97323E-07 21797   0.491E-03
  33 F= -.39684812E+03 E0= -.39685026E+03  d E =-.514009E-04
 ZBRENT: can't locate minimum, use default step
 trial-energy change:   -0.000051  1 .order   -0.000051   -0.000052   -0.000049
 step:   3.6736(harm= 14.9216)  dis= 0.00623  next Energy=  -396.848494 (dE=-0.426E-03)
 bond charge predicted
       N       E                     dE             d eps       ncg     rms          rms(c)
RMM:   1    -0.396848242417E+03   -0.12275E-03   -0.73310E-03 35760   0.211E-01    0.232E-02
RMM:   2    -0.396848266663E+03   -0.24247E-04   -0.18096E-04 37639   0.656E-02    0.236E-02
RMM:   3    -0.396848268113E+03   -0.14500E-05   -0.36052E-05 39950   0.187E-02    0.264E-02
RMM:   4    -0.396848265098E+03    0.30156E-05   -0.21069E-05 34520   0.181E-02    0.172E-02
RMM:   5    -0.396848261054E+03    0.40434E-05   -0.10332E-05 32054   0.134E-02    0.867E-03
RMM:   6    -0.396848260947E+03    0.10724E-06   -0.41303E-06 24636   0.890E-03
  34 F= -.39684826E+03 E0= -.39685040E+03  d E =-.192837E-03
 curvature:  -2.92 expect dE=-0.117E-03 dE for cont linesearch -0.103E-03
 ZBRENT: increasing intervall
 opt :   9.1840  next Energy=  -396.848485 (dE=-0.417E-03)
 bond charge predicted
       N       E                     dE             d eps       ncg     rms          rms(c)
RMM:   1    -0.396848408271E+03   -0.14722E-03   -0.29294E-02 35760   0.422E-01    0.451E-02
RMM:   2    -0.396848478167E+03   -0.69897E-04   -0.70071E-04 36134   0.139E-01    0.349E-02
RMM:   3    -0.396848519768E+03   -0.41600E-04   -0.17543E-04 41123   0.460E-02    0.565E-02
RMM:   4    -0.396848494916E+03    0.24852E-04   -0.73102E-05 40433   0.341E-02    0.300E-02
RMM:   5    -0.396848496549E+03   -0.16332E-05   -0.60692E-05 41039   0.235E-02    0.328E-02
RMM:   6    -0.396848483534E+03    0.13015E-04   -0.21209E-05 32777   0.182E-02    0.116E-02
RMM:   7    -0.396848482317E+03    0.12163E-05   -0.93928E-06 27030   0.101E-02    0.619E-03
RMM:   8    -0.396848482133E+03    0.18424E-06   -0.29499E-06 24466   0.607E-03
  35 F= -.39684848E+03 E0= -.39685063E+03  d E =-.414023E-03
 curvature:  -6.36 expect dE=-0.162E-03 dE for cont linesearch -0.105E-03
 ZBRENT: increasing intervall
 opt :  20.2048  next Energy=  -396.848674 (dE=-0.606E-03)
 bond charge predicted
       N       E                     dE             d eps       ncg     rms          rms(c)
RMM:   1    -0.396848409353E+03    0.72965E-04   -0.11728E-01 35760   0.844E-01    0.864E-02
RMM:   2    -0.396848670856E+03   -0.26150E-03   -0.27951E-03 37193   0.263E-01    0.625E-02
RMM:   3    -0.396848852406E+03   -0.18155E-03   -0.65393E-04 44670   0.806E-02    0.115E-01
RMM:   4    -0.396848744709E+03    0.10770E-03   -0.28286E-04 40128   0.681E-02    0.582E-02
RMM:   5    -0.396848696802E+03    0.47906E-04   -0.13923E-04 46458   0.250E-02    0.249E-02
RMM:   6    -0.396848688802E+03    0.80003E-05   -0.36320E-05 37634   0.194E-02    0.151E-02
RMM:   7    -0.396848687862E+03    0.94007E-06   -0.13313E-05 29627   0.117E-02    0.103E-02
RMM:   8    -0.396848686407E+03    0.14551E-05   -0.53458E-06 25749   0.787E-03    0.413E-03
RMM:   9    -0.396848686786E+03   -0.37915E-06   -0.26562E-06 24119   0.597E-03
  36 F= -.39684869E+03 E0= -.39685084E+03  d E =-.618676E-03
 curvature: -11.61 expect dE=-0.388E-03 dE for cont linesearch -0.166E-05
 trial: gam= 0.53523 g(F)=  0.334E-04 g(S)=  0.000E+00 ort = 0.300E-05 (trialstep = 0.478E+01)
 search vector abs. value=  0.547E-04
 bond charge predicted
       N       E                     dE             d eps       ncg     rms          rms(c)
RMM:   1    -0.396848633041E+03    0.53366E-04   -0.19780E-02 36037   0.342E-01    0.391E-02
RMM:   2    -0.396848679563E+03   -0.46522E-04   -0.52173E-04 36730   0.109E-01    0.304E-02
RMM:   3    -0.396848723218E+03   -0.43655E-04   -0.13666E-04 44157   0.375E-02    0.580E-02
RMM:   4    -0.396848683159E+03    0.40059E-04   -0.48543E-05 40276   0.269E-02    0.212E-02
RMM:   5    -0.396848686691E+03   -0.35325E-05   -0.43457E-05 37560   0.237E-02    0.252E-02
RMM:   6    -0.396848679170E+03    0.75213E-05   -0.13041E-05 30979   0.151E-02    0.689E-03
RMM:   7    -0.396848679176E+03   -0.61100E-08   -0.65887E-06 26792   0.779E-03
  37 F= -.39684868E+03 E0= -.39685083E+03  d E =0.761013E-05
 trial-energy change:    0.000008  1 .order    0.000013   -0.000167    0.000192
 step:   2.3199(harm=  2.2203)  dis= 0.00209  next Energy=  -396.848728 (dE=-0.412E-04)
 bond charge predicted
       N       E                     dE             d eps       ncg     rms          rms(c)
RMM:   1    -0.396848716661E+03   -0.37491E-04   -0.52265E-03 36040   0.176E-01    0.222E-02
RMM:   2    -0.396848729566E+03   -0.12905E-04   -0.14806E-04 35752   0.658E-02    0.212E-02
RMM:   3    -0.396848738175E+03   -0.86086E-05   -0.40952E-05 39355   0.227E-02    0.285E-02
RMM:   4    -0.396848730087E+03    0.80874E-05   -0.11285E-05 31738   0.126E-02    0.134E-02
RMM:   5    -0.396848729905E+03    0.18177E-06   -0.10614E-05 30061   0.123E-02    0.146E-02
RMM:   6    -0.396848729012E+03    0.89352E-06   -0.64509E-06 26718   0.119E-02
  38 F= -.39684873E+03 E0= -.39685088E+03  d E =-.422259E-04
 curvature:  -1.73 expect dE=-0.641E-05 dE for cont linesearch -0.543E-07
 trial: gam= 0.21279 g(F)=  0.370E-05 g(S)=  0.000E+00 ort =-0.131E-05 (trialstep = 0.428E+01)
 search vector abs. value=  0.562E-05
 reached required accuracy - stopping structural energy minimisation
 augmentation electrons   20.899132949202556     
 soft         electrons   168.15504323581348     
 augmentation electrons   20.899132949202556     
 soft         electrons   168.15504323581348     
 augmentation electrons   20.899132949202556     
 soft         electrons   168.15504323581348     
 augmentation electrons   20.899132949202556     
 soft         electrons   168.15504323581348     
 augmentation electrons   20.899132949202556     
 soft         electrons   168.15504323581348     
 augmentation electrons   20.899132949202556     
 soft         electrons   168.15504323581348     
 augmentation electrons   20.899132949202556     
 soft         electrons   168.15504323581348     
 augmentation electrons   20.899132949202556     
 soft         electrons   168.15504323581348     
 augmentation electrons   20.899132949202556     
 soft         electrons   168.15504323581348     
 augmentation electrons   20.899132949202556     
 soft         electrons   168.15504323581348     
 augmentation electrons   20.899132949202556     
 soft         electrons   168.15504323581348     
 augmentation electrons   20.899132949202556     
 soft         electrons   168.15504323581348     
 augmentation electrons   20.899132949202556     
 soft         electrons   168.15504323581348     
 augmentation electrons   20.899132949202556     
 soft         electrons   168.15504323581348     
 augmentation electrons   20.899132949202556     
 soft         electrons   168.15504323581348     
 augmentation electrons   20.899132949202556     
 soft         electrons   168.15504323581348     
 augmentation electrons   20.899132949202556     
 soft         electrons   168.15504323581348     
 augmentation electrons   20.899132949202556     
 soft         electrons   168.15504323581348     
 augmentation electrons   20.899132949202556     
 soft         electrons   168.15504323581348     
 augmentation electrons   20.899132949202556     
 soft         electrons   168.15504323581348     
 augmentation electrons   20.899132949202556     
 soft         electrons   168.15504323581348     
 augmentation electrons   20.899132949202556     
 soft         electrons   168.15504323581348     
 augmentation electrons   20.899132949202556     
 soft         electrons   168.15504323581348     
 augmentation electrons   20.899132949202556     
 soft         electrons   168.15504323581348     
 augmentation electrons   20.899132949202556     
 soft         electrons   168.15504323581348     
 augmentation electrons   20.899132949202556     
 soft         electrons   168.15504323581348     
 augmentation electrons   20.899132949202556     
 soft         electrons   168.15504323581348     
 augmentation electrons   20.899132949202556     
 soft         electrons   168.15504323581348     
 augmentation electrons   20.899132949202556     
 soft         electrons   168.15504323581348     
 augmentation electrons   20.899132949202556     
 soft         electrons   168.15504323581348     
 augmentation electrons   20.899132949202556     
 soft         electrons   168.15504323581348     
 augmentation electrons   20.899132949202556     
 soft         electrons   168.15504323581348     
 augmentation electrons   20.899132949202556     
 soft         electrons   168.15504323581348     
 augmentation electrons   20.899132949202556     
 soft         electrons   168.15504323581348     
 augmentation electrons   20.899132949202556     
 soft         electrons   168.15504323581348     
 augmentation electrons   20.899132949202556     
 soft         electrons   168.15504323581348     
 augmentation electrons   20.899132949202556     
 soft         electrons   168.15504323581348     
 augmentation electrons   20.899132949202556     
 soft         electrons   168.15504323581348     
 augmentation electrons   20.899132949202556     
 soft         electrons   168.15504323581348     
 augmentation electrons   20.899132949202556     
 soft         electrons   168.15504323581348     
 augmentation electrons   20.899132949202556     
 soft         electrons   168.15504323581348     
 augmentation electrons   20.899132949202556     
 soft         electrons   168.15504323581348     
 augmentation electrons   20.899132949202556     
 soft         electrons   168.15504323581348     
 augmentation electrons   20.899132949202556     
 soft         electrons   168.15504323581348     
 augmentation electrons   20.899132949202556     
 soft         electrons   168.15504323581348     
 augmentation electrons   20.899132949202556     
 soft         electrons   168.15504323581348     
 augmentation electrons   20.899132949202556     
 soft         electrons   168.15504323581348     
 augmentation electrons   20.899132949202556     
 soft         electrons   168.15504323581348     
 total        electrons   189.05417618501605     
 total        electrons   189.05417618501605     
 total        electrons   189.05417618501605     
 total        electrons   189.05417618501605     
 total        electrons   189.05417618501605     
 total        electrons   189.05417618501605     
 total        electrons   189.05417618501605     
 total        electrons   189.05417618501605     
 total        electrons   189.05417618501605     
 total        electrons   189.05417618501605     
 total        electrons   189.05417618501605     
 total        electrons   189.05417618501605     
 total        electrons   189.05417618501605     
 total        electrons   189.05417618501605     
 total        electrons   189.05417618501605     
 total        electrons   189.05417618501605     
 total        electrons   189.05417618501605     
 total        electrons   189.05417618501605     
 total        electrons   189.05417618501605     
 total        electrons   189.05417618501605     
 total        electrons   189.05417618501605     
 total        electrons   189.05417618501605     
 total        electrons   189.05417618501605     
 total        electrons   189.05417618501605     
 total        electrons   189.05417618501605     
 total        electrons   189.05417618501605     
 total        electrons   189.05417618501605     
 total        electrons   189.05417618501605     
 total        electrons   189.05417618501605     
 total        electrons   189.05417618501605     
 total        electrons   189.05417618501605     
 total        electrons   189.05417618501605     
 total        electrons   189.05417618501605     
 total        electrons   189.05417618501605     
 total        electrons   189.05417618501605     
 total        electrons   189.05417618501605     
 total        electrons   189.05417618501605     
 total        electrons   189.05417618501605     
 total        electrons   189.05417618501605     
 total        electrons   189.05417618501605     
 total        electrons   189.05417618501605     
 total        electrons   189.05417618501605     
 total        electrons   189.05417618501605     
 total        electrons   189.05417618501605     
 total        electrons   189.05417618501605     
 total        electrons   189.05417618501605     
 total        electrons   189.05417618501605     
 total        electrons   189.05417618501605     
Note: The following floating-point exceptions are signalling: IEEE_OVERFLOW_FLAG
Note: The following floating-point exceptions are signalling: IEEE_OVERFLOW_FLAG
Note: The following floating-point exceptions are signalling: IEEE_OVERFLOW_FLAG
Note: The following floating-point exceptions are signalling: IEEE_OVERFLOW_FLAG
Note: The following floating-point exceptions are signalling: IEEE_OVERFLOW_FLAG
Note: The following floating-point exceptions are signalling: IEEE_OVERFLOW_FLAG
Note: The following floating-point exceptions are signalling: IEEE_OVERFLOW_FLAG
Note: The following floating-point exceptions are signalling: IEEE_OVERFLOW_FLAG
Note: The following floating-point exceptions are signalling: IEEE_OVERFLOW_FLAG
Note: The following floating-point exceptions are signalling: IEEE_OVERFLOW_FLAG
Note: The following floating-point exceptions are signalling: IEEE_OVERFLOW_FLAG
Note: The following floating-point exceptions are signalling: IEEE_OVERFLOW_FLAG
Note: The following floating-point exceptions are signalling: IEEE_OVERFLOW_FLAG
Note: The following floating-point exceptions are signalling: IEEE_OVERFLOW_FLAG
Note: The following floating-point exceptions are signalling: IEEE_OVERFLOW_FLAG
Note: The following floating-point exceptions are signalling: IEEE_OVERFLOW_FLAG
Note: The following floating-point exceptions are signalling: IEEE_OVERFLOW_FLAG
Note: The following floating-point exceptions are signalling: IEEE_OVERFLOW_FLAG
Note: The following floating-point exceptions are signalling: IEEE_OVERFLOW_FLAG
Note: The following floating-point exceptions are signalling: IEEE_OVERFLOW_FLAG
Note: The following floating-point exceptions are signalling: IEEE_OVERFLOW_FLAG
Note: The following floating-point exceptions are signalling: IEEE_OVERFLOW_FLAG
Note: The following floating-point exceptions are signalling: IEEE_OVERFLOW_FLAG
Note: The following floating-point exceptions are signalling: IEEE_OVERFLOW_FLAG
Note: The following floating-point exceptions are signalling: IEEE_OVERFLOW_FLAG
Note: The following floating-point exceptions are signalling: IEEE_OVERFLOW_FLAG
Note: The following floating-point exceptions are signalling: IEEE_OVERFLOW_FLAG
Note: The following floating-point exceptions are signalling: IEEE_INVALID_FLAG IEEE_OVERFLOW_FLAG
Note: The following floating-point exceptions are signalling: IEEE_OVERFLOW_FLAG
Note: The following floating-point exceptions are signalling: IEEE_OVERFLOW_FLAG
Note: The following floating-point exceptions are signalling: IEEE_OVERFLOW_FLAG
Note: The following floating-point exceptions are signalling: IEEE_OVERFLOW_FLAG
Note: The following floating-point exceptions are signalling: IEEE_OVERFLOW_FLAG
Note: The following floating-point exceptions are signalling: IEEE_OVERFLOW_FLAG
Note: The following floating-point exceptions are signalling: IEEE_OVERFLOW_FLAG
Note: The following floating-point exceptions are signalling: IEEE_OVERFLOW_FLAG
Note: The following floating-point exceptions are signalling: IEEE_OVERFLOW_FLAG
Note: The following floating-point exceptions are signalling: IEEE_OVERFLOW_FLAG
Note: The following floating-point exceptions are signalling: IEEE_OVERFLOW_FLAG
Note: The following floating-point exceptions are signalling: IEEE_OVERFLOW_FLAG
Note: The following floating-point exceptions are signalling: IEEE_OVERFLOW_FLAG
Note: The following floating-point exceptions are signalling: IEEE_OVERFLOW_FLAG
Note: The following floating-point exceptions are signalling: IEEE_OVERFLOW_FLAG
Note: The following floating-point exceptions are signalling: IEEE_OVERFLOW_FLAG
Note: The following floating-point exceptions are signalling: IEEE_INVALID_FLAG IEEE_OVERFLOW_FLAG
Note: The following floating-point exceptions are signalling: IEEE_OVERFLOW_FLAG
Note: The following floating-point exceptions are signalling: IEEE_OVERFLOW_FLAG
Note: The following floating-point exceptions are signalling: IEEE_OVERFLOW_FLAG
