   50   50    1    1
  0.2363123E+02  0.8645320E-09  0.6085000E-09  0.2593596E-08  0.5000000E-15
   1.0000000000000000E-004
  CAR 
 Name                                    
    190    149    128

  0.3742002E-15  0.3742002E-15  0.3742002E-15  0.3367003E-02
    1      -13.980481   1.000000
    2      -12.637150   1.000000
    3      -12.479210   1.000000
    4      -12.010472   1.000000
    5      -11.645614   1.000000
    6      -11.212038   1.000000
    7      -11.170165   1.000000
    8      -11.129749   1.000000
    9      -11.115526   1.000000
   10      -10.689873   1.000000
   11      -10.682455   1.000000
   12      -10.355633   1.000000
   13      -10.171545   1.000000
   14      -10.153223   1.000000
   15       -9.835354   1.000000
   16       -9.806522   1.000000
   17       -8.968135   1.000000
   18       -8.878122   1.000000
   19       -8.836147   1.000000
   20       -8.747941   1.000000
   21       -8.625098   1.000000
   22       -8.599552   1.000000
   23       -8.525153   1.000000
   24       -8.093439   1.000000
   25       -8.014633   1.000000
   26       -7.984597   1.000000
   27       -7.316188   1.000000
   28       -7.204727   1.000000
   29       -6.898372   1.000000
   30       -6.693138   1.000000
   31       -6.490884   1.000000
   32       -6.489244   1.000000
   33       -6.105524   1.000000
   34       -5.995210   1.000000
   35       -5.747405   1.000000
   36       -5.629282   1.000000
   37       -5.578014   1.000000
   38       -5.437928   1.000000
   39       -5.367998   1.000000
   40       -5.294756   1.000000
   41       -5.216378   1.000000
   42       -5.149369   1.000000
   43       -5.103830   1.000000
   44       -5.035215   1.000000
   45       -4.928127   1.000000
   46       -4.786644   1.000000
   47       -4.734977   1.000000
   48       -4.718118   1.000000
   49       -4.594237   1.000000
   50       -4.537814   1.000000
   51       -4.523038   1.000000
   52       -4.438155   1.000000
   53       -4.430749   1.000000
   54       -4.330464   1.000000
   55       -4.183377   1.000000
   56       -4.064422   1.000000
   57       -4.062146   1.000000
   58       -4.044292   1.000000
   59       -4.029779   1.000000
   60       -3.858417   1.000000
   61       -3.762665   1.000000
   62       -3.519818   1.000000
   63       -3.455335   1.000000
   64       -3.410473   1.000000
   65       -3.389723   1.000000
   66       -3.337736   1.000000
   67       -3.309847   1.000000
   68       -3.240757   1.000000
   69       -3.224739   1.000000
   70       -3.213119   1.000000
   71       -3.032544   1.000000
   72       -2.806080   1.000000
   73       -2.728782   1.000000
   74       -2.649921   1.000000
   75       -2.506736   1.000000
   76       -2.443964   1.000000
   77       -2.241609   1.000000
   78       -2.219902   1.000000
   79       -2.202567   1.000000
   80       -2.170970   1.000000
   81       -1.740510   1.000000
   82       -1.575275   1.000000
   83       -1.295481   1.000000
   84       -1.237733   1.000000
   85       -1.112233   1.000000
   86       -1.047625   1.000000
   87       -0.946724   1.000000
   88       -0.860080   1.000000
   89       -0.710606   1.000000
   90       -0.339151   1.000000
   91       -0.295088   1.000000
   92       -0.032387   1.033885
   93        0.039722   0.925637
   94        0.080126   0.672405
   95        0.124874   0.304151
   96        0.233011  -0.034229
   97        0.284079  -0.013274
   98        0.610321  -0.000000
   99        0.614564  -0.000000
  100        0.634978  -0.000000
  101        0.718422  -0.000000
  102        0.751987  -0.000000
  103        0.826663  -0.000000
  104        0.873349  -0.000000
  105        0.915368  -0.000000
  106        1.262503  -0.000000
  107        1.271136  -0.000000
  108        1.329222  -0.000000
  109        1.351943  -0.000000
  110        1.444907  -0.000000
  111        1.483472  -0.000000
  112        1.510133  -0.000000
  113        1.538444  -0.000000
  114        1.641823  -0.000000
  115        1.671318  -0.000000
  116        1.743375  -0.000000
  117        1.749640  -0.000000
  118        1.816974  -0.000000
  119        1.841749  -0.000000
  120        1.930037  -0.000000
  121        2.034220  -0.000000
  122        2.129887  -0.000000
  123        2.230080  -0.000000
  124        2.287160  -0.000000
  125        2.388049  -0.000000
  126        2.456226  -0.000000
  127        2.914101   0.000000
  128        3.777140   0.000000

  0.1111111E+00  0.3729374E-15  0.3860503E-15  0.6734007E-02
    1      -13.953475   1.000000
    2      -12.613248   1.000000
    3      -12.599666   1.000000
    4      -11.950882   1.000000
    5      -11.628876   1.000000
    6      -11.193720   1.000000
    7      -11.191429   1.000000
    8      -11.126672   1.000000
    9      -11.122689   1.000000
   10      -10.688937   1.000000
   11      -10.680264   1.000000
   12      -10.379944   1.000000
   13      -10.169859   1.000000
   14      -10.154948   1.000000
   15       -9.813842   1.000000
   16       -9.787707   1.000000
   17       -8.950636   1.000000
   18       -8.859568   1.000000
   19       -8.840270   1.000000
   20       -8.767605   1.000000
   21       -8.634023   1.000000
   22       -8.590892   1.000000
   23       -8.563898   1.000000
   24       -8.109800   1.000000
   25       -8.059708   1.000000
   26       -7.985527   1.000000
   27       -7.410874   1.000000
   28       -7.223088   1.000000
   29       -6.806555   1.000000
   30       -6.699637   1.000000
   31       -6.470576   1.000000
   32       -6.464241   1.000000
   33       -6.081680   1.000000
   34       -5.968423   1.000000
   35       -5.728808   1.000000
   36       -5.609275   1.000000
   37       -5.574925   1.000000
   38       -5.469959   1.000000
   39       -5.385610   1.000000
   40       -5.314544   1.000000
   41       -5.231851   1.000000
   42       -5.142219   1.000000
   43       -5.091559   1.000000
   44       -5.008719   1.000000
   45       -4.869566   1.000000
   46       -4.794813   1.000000
   47       -4.723195   1.000000
   48       -4.647039   1.000000
   49       -4.631057   1.000000
   50       -4.513802   1.000000
   51       -4.510107   1.000000
   52       -4.426797   1.000000
   53       -4.423530   1.000000
   54       -4.307724   1.000000
   55       -4.178980   1.000000
   56       -4.074510   1.000000
   57       -4.066128   1.000000
   58       -4.056659   1.000000
   59       -4.017308   1.000000
   60       -3.843093   1.000000
   61       -3.768566   1.000000
   62       -3.546802   1.000000
   63       -3.463609   1.000000
   64       -3.392815   1.000000
   65       -3.375127   1.000000
   66       -3.366256   1.000000
   67       -3.307990   1.000000
   68       -3.242602   1.000000
   69       -3.242057   1.000000
   70       -3.171936   1.000000
   71       -3.058198   1.000000
   72       -2.829054   1.000000
   73       -2.809713   1.000000
   74       -2.629626   1.000000
   75       -2.470065   1.000000
   76       -2.444845   1.000000
   77       -2.298443   1.000000
   78       -2.281349   1.000000
   79       -2.237291   1.000000
   80       -2.138229   1.000000
   81       -1.661198   1.000000
   82       -1.604090   1.000000
   83       -1.303357   1.000000
   84       -1.269093   1.000000
   85       -1.106679   1.000000
   86       -1.007699   1.000000
   87       -0.930627   1.000000
   88       -0.765408   1.000000
   89       -0.743331   1.000000
   90       -0.408189   1.000000
   91       -0.357118   1.000000
   92       -0.019810   1.035414
   93        0.039598   0.926177
   94        0.097770   0.527267
   95        0.175436   0.025567
   96        0.244219  -0.030535
   97        0.244892  -0.030264
   98        0.572673  -0.000000
   99        0.623454  -0.000000
  100        0.639074  -0.000000
  101        0.740697  -0.000000
  102        0.774638  -0.000000
  103        0.848166  -0.000000
  104        0.898698  -0.000000
  105        0.932018  -0.000000
  106        1.259749  -0.000000
  107        1.266851  -0.000000
  108        1.309415  -0.000000
  109        1.380353  -0.000000
  110        1.441840  -0.000000
  111        1.509588  -0.000000
  112        1.539992  -0.000000
  113        1.559054  -0.000000
  114        1.647422  -0.000000
  115        1.705838  -0.000000
  116        1.723547  -0.000000
  117        1.728059  -0.000000
  118        1.824184  -0.000000
  119        1.851050  -0.000000
  120        1.930915  -0.000000
  121        2.038693  -0.000000
  122        2.097111  -0.000000
  123        2.211315  -0.000000
  124        2.280834  -0.000000
  125        2.412594  -0.000000
  126        2.551816  -0.000000
  127        3.806194   0.000000
  128        4.222786   0.000000

  0.2222222E+00  0.3922785E-15  0.3630220E-15  0.6734007E-02
    1      -13.873227   1.000000
    2      -12.839082   1.000000
    3      -12.542838   1.000000
    4      -11.906919   1.000000
    5      -11.581249   1.000000
    6      -11.256366   1.000000
    7      -11.146634   1.000000
    8      -11.120788   1.000000
    9      -11.097284   1.000000
   10      -10.685433   1.000000
   11      -10.673392   1.000000
   12      -10.459926   1.000000
   13      -10.170203   1.000000
   14      -10.162860   1.000000
   15       -9.749633   1.000000
   16       -9.729540   1.000000
   17       -8.907039   1.000000
   18       -8.845598   1.000000
   19       -8.829610   1.000000
   20       -8.796334   1.000000
   21       -8.735326   1.000000
   22       -8.587091   1.000000
   23       -8.573647   1.000000
   24       -8.203360   1.000000
   25       -8.172666   1.000000
   26       -7.905031   1.000000
   27       -7.631312   1.000000
   28       -7.191874   1.000000
   29       -6.770641   1.000000
   30       -6.622793   1.000000
   31       -6.433949   1.000000
   32       -6.411756   1.000000
   33       -6.092542   1.000000
   34       -5.890589   1.000000
   35       -5.728667   1.000000
   36       -5.660892   1.000000
   37       -5.544891   1.000000
   38       -5.529642   1.000000
   39       -5.322972   1.000000
   40       -5.213834   1.000000
   41       -5.193512   1.000000
   42       -5.102022   1.000000
   43       -5.070287   1.000000
   44       -4.931467   1.000000
   45       -4.915105   1.000000
   46       -4.827438   1.000000
   47       -4.739129   1.000000
   48       -4.598247   1.000000
   49       -4.523219   1.000000
   50       -4.488481   1.000000
   51       -4.465143   1.000000
   52       -4.409255   1.000000
   53       -4.373429   1.000000
   54       -4.251540   1.000000
   55       -4.178716   1.000000
   56       -4.097718   1.000000
   57       -4.077536   1.000000
   58       -4.045958   1.000000
   59       -3.988071   1.000000
   60       -3.804472   1.000000
   61       -3.781773   1.000000
   62       -3.627403   1.000000
   63       -3.527160   1.000000
   64       -3.403729   1.000000
   65       -3.367556   1.000000
   66       -3.343328   1.000000
   67       -3.318015   1.000000
   68       -3.268381   1.000000
   69       -3.205089   1.000000
   70       -3.147439   1.000000
   71       -3.073297   1.000000
   72       -2.930688   1.000000
   73       -2.879723   1.000000
   74       -2.577499   1.000000
   75       -2.488607   1.000000
   76       -2.445848   1.000000
   77       -2.430905   1.000000
   78       -2.399997   1.000000
   79       -2.301794   1.000000
   80       -2.027354   1.000000
   81       -1.783626   1.000000
   82       -1.445625   1.000000
   83       -1.349967   1.000000
   84       -1.302673   1.000000
   85       -1.058853   1.000000
   86       -0.919289   1.000000
   87       -0.881958   1.000000
   88       -0.836991   1.000000
   89       -0.544343   1.000000
   90       -0.527453   1.000000
   91       -0.489943   1.000000
   92       -0.139030   1.001787
   93        0.091354   0.581154
   94        0.125306   0.300838
   95        0.179740   0.013228
   96        0.261004  -0.023061
   97        0.429771  -0.000017
   98        0.540604  -0.000000
   99        0.548666  -0.000000
  100        0.561221  -0.000000
  101        0.763266  -0.000000
  102        0.867023  -0.000000
  103        0.922019  -0.000000
  104        0.939803  -0.000000
  105        0.967988  -0.000000
  106        1.222112  -0.000000
  107        1.313356  -0.000000
  108        1.318915  -0.000000
  109        1.423865  -0.000000
  110        1.479132  -0.000000
  111        1.510066  -0.000000
  112        1.595911  -0.000000
  113        1.599692  -0.000000
  114        1.654622  -0.000000
  115        1.674783  -0.000000
  116        1.704166  -0.000000
  117        1.783134  -0.000000
  118        1.811267  -0.000000
  119        1.889832  -0.000000
  120        1.948586  -0.000000
  121        2.017506  -0.000000
  122        2.046244  -0.000000
  123        2.147172  -0.000000
  124        2.196313  -0.000000
  125        2.338350  -0.000000
  126        2.620849  -0.000000
  127        2.827954  -0.000000
  128        3.810023   0.000000

  0.3333333E+00  0.3713828E-15  0.3468587E-15  0.6734007E-02
    1      -13.742124   1.000000
    2      -13.099422   1.000000
    3      -12.430187   1.000000
    4      -11.975228   1.000000
    5      -11.510896   1.000000
    6      -11.310635   1.000000
    7      -11.111028   1.000000
    8      -11.106291   1.000000
    9      -11.023200   1.000000
   10      -10.685148   1.000000
   11      -10.662797   1.000000
   12      -10.583073   1.000000
   13      -10.178357   1.000000
   14      -10.175837   1.000000
   15       -9.649075   1.000000
   16       -9.636393   1.000000
   17       -8.986505   1.000000
   18       -8.934615   1.000000
   19       -8.813147   1.000000
   20       -8.795907   1.000000
   21       -8.665303   1.000000
   22       -8.593854   1.000000
   23       -8.558120   1.000000
   24       -8.319548   1.000000
   25       -8.302960   1.000000
   26       -7.896694   1.000000
   27       -7.732644   1.000000
   28       -7.051506   1.000000
   29       -6.946728   1.000000
   30       -6.447805   1.000000
   31       -6.430147   1.000000
   32       -6.355732   1.000000
   33       -6.231261   1.000000
   34       -5.954008   1.000000
   35       -5.755476   1.000000
   36       -5.546830   1.000000
   37       -5.441915   1.000000
   38       -5.432268   1.000000
   39       -5.221106   1.000000
   40       -5.195710   1.000000
   41       -5.152956   1.000000
   42       -5.107431   1.000000
   43       -5.019758   1.000000
   44       -4.983182   1.000000
   45       -4.858814   1.000000
   46       -4.789685   1.000000
   47       -4.733618   1.000000
   48       -4.568066   1.000000
   49       -4.524097   1.000000
   50       -4.461025   1.000000
   51       -4.423594   1.000000
   52       -4.360402   1.000000
   53       -4.291587   1.000000
   54       -4.208891   1.000000
   55       -4.156957   1.000000
   56       -4.136627   1.000000
   57       -4.019210   1.000000
   58       -3.988997   1.000000
   59       -3.953686   1.000000
   60       -3.820783   1.000000
   61       -3.799417   1.000000
   62       -3.673116   1.000000
   63       -3.644232   1.000000
   64       -3.407800   1.000000
   65       -3.391889   1.000000
   66       -3.382057   1.000000
   67       -3.319788   1.000000
   68       -3.298972   1.000000
   69       -3.197463   1.000000
   70       -3.144292   1.000000
   71       -2.971215   1.000000
   72       -2.946121   1.000000
   73       -2.910928   1.000000
   74       -2.679795   1.000000
   75       -2.658575   1.000000
   76       -2.533849   1.000000
   77       -2.468737   1.000000
   78       -2.367263   1.000000
   79       -2.326192   1.000000
   80       -1.973765   1.000000
   81       -1.851824   1.000000
   82       -1.509692   1.000000
   83       -1.434903   1.000000
   84       -1.127599   1.000000
   85       -1.048953   1.000000
   86       -0.873918   1.000000
   87       -0.836707   1.000000
   88       -0.750597   1.000000
   89       -0.687400   1.000000
   90       -0.611882   1.000000
   91       -0.341912   1.000000
   92       -0.217806   1.000031
   93        0.078370   0.686131
   94        0.123152   0.317487
   95        0.203198  -0.027267
   96        0.356642  -0.000896
   97        0.408574  -0.000061
   98        0.453678  -0.000004
   99        0.468380  -0.000001
  100        0.765549  -0.000000
  101        0.851693  -0.000000
  102        0.904724  -0.000000
  103        0.940387  -0.000000
  104        0.960829  -0.000000
  105        1.056449  -0.000000
  106        1.089375  -0.000000
  107        1.405151  -0.000000
  108        1.425225  -0.000000
  109        1.475432  -0.000000
  110        1.488234  -0.000000
  111        1.559572  -0.000000
  112        1.588172  -0.000000
  113        1.618795  -0.000000
  114        1.622276  -0.000000
  115        1.683703  -0.000000
  116        1.719494  -0.000000
  117        1.744898  -0.000000
  118        1.795345  -0.000000
  119        1.902328  -0.000000
  120        1.938352  -0.000000
  121        1.968563  -0.000000
  122        2.028515  -0.000000
  123        2.094786  -0.000000
  124        2.174110  -0.000000
  125        2.528013  -0.000000
  126        2.653403  -0.000000
  127        3.458681   0.000000
  128        3.836878   0.000000

  0.4444444E+00  0.3870091E-15  0.3932070E-15  0.6734007E-02
    1      -13.564419   1.000000
    2      -13.346776   1.000000
    3      -12.283936   1.000000
    4      -12.120897   1.000000
    5      -11.432074   1.000000
    6      -11.362539   1.000000
    7      -11.097071   1.000000
    8      -11.096383   1.000000
    9      -10.903845   1.000000
   10      -10.765313   1.000000
   11      -10.653184   1.000000
   12      -10.646743   1.000000
   13      -10.187823   1.000000
   14      -10.187208   1.000000
   15       -9.547759   1.000000
   16       -9.543632   1.000000
   17       -9.094445   1.000000
   18       -9.078765   1.000000
   19       -8.762823   1.000000
   20       -8.757231   1.000000
   21       -8.622719   1.000000
   22       -8.621584   1.000000
   23       -8.435856   1.000000
   24       -8.391274   1.000000
   25       -8.370851   1.000000
   26       -8.163496   1.000000
   27       -7.487853   1.000000
   28       -7.206028   1.000000
   29       -6.825084   1.000000
   30       -6.572638   1.000000
   31       -6.377269   1.000000
   32       -6.343869   1.000000
   33       -6.237664   1.000000
   34       -6.103659   1.000000
   35       -5.592075   1.000000
   36       -5.426201   1.000000
   37       -5.401270   1.000000
   38       -5.357367   1.000000
   39       -5.289887   1.000000
   40       -5.216224   1.000000
   41       -5.148725   1.000000
   42       -5.143593   1.000000
   43       -4.948635   1.000000
   44       -4.907776   1.000000
   45       -4.805068   1.000000
   46       -4.730207   1.000000
   47       -4.661182   1.000000
   48       -4.646952   1.000000
   49       -4.578944   1.000000
   50       -4.496867   1.000000
   51       -4.351391   1.000000
   52       -4.297107   1.000000
   53       -4.258320   1.000000
   54       -4.242268   1.000000
   55       -4.109813   1.000000
   56       -4.065401   1.000000
   57       -4.003952   1.000000
   58       -3.977425   1.000000
   59       -3.899767   1.000000
   60       -3.833909   1.000000
   61       -3.819265   1.000000
   62       -3.728812   1.000000
   63       -3.658141   1.000000
   64       -3.579975   1.000000
   65       -3.374407   1.000000
   66       -3.374097   1.000000
   67       -3.303317   1.000000
   68       -3.301355   1.000000
   69       -3.145008   1.000000
   70       -3.124667   1.000000
   71       -2.967546   1.000000
   72       -2.951081   1.000000
   73       -2.837997   1.000000
   74       -2.833584   1.000000
   75       -2.775968   1.000000
   76       -2.661309   1.000000
   77       -2.379999   1.000000
   78       -2.339254   1.000000
   79       -2.306886   1.000000
   80       -2.162041   1.000000
   81       -1.696863   1.000000
   82       -1.610926   1.000000
   83       -1.419059   1.000000
   84       -1.249868   1.000000
   85       -0.973419   1.000000
   86       -0.853537   1.000000
   87       -0.793064   1.000000
   88       -0.775009   1.000000
   89       -0.625694   1.000000
   90       -0.508535   1.000000
   91       -0.464089   1.000000
   92       -0.140574   1.001674
   93        0.050334   0.873698
   94        0.107059   0.448776
   95        0.174368   0.028894
   96        0.329492  -0.002866
   97        0.400942  -0.000094
   98        0.406383  -0.000069
   99        0.664577  -0.000000
  100        0.772763  -0.000000
  101        0.811118  -0.000000
  102        0.851093  -0.000000
  103        0.950502  -0.000000
  104        0.953242  -0.000000
  105        1.241843  -0.000000
  106        1.252440  -0.000000
  107        1.376013  -0.000000
  108        1.475821  -0.000000
  109        1.496354  -0.000000
  110        1.525134  -0.000000
  111        1.581124  -0.000000
  112        1.601474  -0.000000
  113        1.611469  -0.000000
  114        1.633682  -0.000000
  115        1.651922  -0.000000
  116        1.717875  -0.000000
  117        1.734217  -0.000000
  118        1.761026  -0.000000
  119        1.802318  -0.000000
  120        1.901934  -0.000000
  121        1.916599  -0.000000
  122        1.977450  -0.000000
  123        2.141504  -0.000000
  124        2.162942  -0.000000
  125        2.217131  -0.000000
  126        2.312712  -0.000000
  127        2.394138  -0.000000
  128        2.696505  -0.000000

  0.3742002E-15  0.9090909E-01  0.3596334E-15  0.6734007E-02
    1      -13.947199   1.000000
    2      -12.607866   1.000000
    3      -12.485851   1.000000
    4      -11.977336   1.000000
    5      -11.626595   1.000000
    6      -11.340460   1.000000
    7      -11.294573   1.000000
    8      -11.165822   1.000000
    9      -11.124181   1.000000
   10      -10.718325   1.000000
   11      -10.667155   1.000000
   12      -10.320510   1.000000
   13      -10.127179   1.000000
   14      -10.108879   1.000000
   15       -9.806661   1.000000
   16       -9.801370   1.000000
   17       -9.064764   1.000000
   18       -8.960711   1.000000
   19       -8.917859   1.000000
   20       -8.692998   1.000000
   21       -8.681943   1.000000
   22       -8.505091   1.000000
   23       -8.273327   1.000000
   24       -7.992452   1.000000
   25       -7.880802   1.000000
   26       -7.875439   1.000000
   27       -7.367950   1.000000
   28       -7.174914   1.000000
   29       -6.847275   1.000000
   30       -6.696803   1.000000
   31       -6.533823   1.000000
   32       -6.480731   1.000000
   33       -6.096928   1.000000
   34       -6.009498   1.000000
   35       -5.736998   1.000000
   36       -5.658001   1.000000
   37       -5.591453   1.000000
   38       -5.386852   1.000000
   39       -5.331062   1.000000
   40       -5.325200   1.000000
   41       -5.267274   1.000000
   42       -5.158842   1.000000
   43       -5.143762   1.000000
   44       -5.039655   1.000000
   45       -5.003930   1.000000
   46       -4.914262   1.000000
   47       -4.773810   1.000000
   48       -4.700856   1.000000
   49       -4.659673   1.000000
   50       -4.553816   1.000000
   51       -4.534056   1.000000
   52       -4.426061   1.000000
   53       -4.406901   1.000000
   54       -4.358502   1.000000
   55       -4.323819   1.000000
   56       -4.120324   1.000000
   57       -4.043578   1.000000
   58       -3.999386   1.000000
   59       -3.905341   1.000000
   60       -3.864616   1.000000
   61       -3.775832   1.000000
   62       -3.535725   1.000000
   63       -3.490144   1.000000
   64       -3.434991   1.000000
   65       -3.413492   1.000000
   66       -3.348225   1.000000
   67       -3.329748   1.000000
   68       -3.208118   1.000000
   69       -3.189214   1.000000
   70       -3.173351   1.000000
   71       -3.057086   1.000000
   72       -2.820299   1.000000
   73       -2.799071   1.000000
   74       -2.651320   1.000000
   75       -2.479793   1.000000
   76       -2.335078   1.000000
   77       -2.277745   1.000000
   78       -2.257772   1.000000
   79       -2.143534   1.000000
   80       -2.133748   1.000000
   81       -1.791745   1.000000
   82       -1.519336   1.000000
   83       -1.325492   1.000000
   84       -1.281104   1.000000
   85       -1.147187   1.000000
   86       -1.028489   1.000000
   87       -1.021273   1.000000
   88       -0.924670   1.000000
   89       -0.654811   1.000000
   90       -0.474546   1.000000
   91       -0.261941   1.000002
   92       -0.133682   1.002234
   93       -0.064328   1.020627
   94       -0.009390   1.032818
   95        0.125641   0.298273
   96        0.224694  -0.035435
   97        0.273360  -0.017528
   98        0.447955  -0.000005
   99        0.479825  -0.000001
  100        0.632553  -0.000000
  101        0.836717  -0.000000
  102        0.866821  -0.000000
  103        0.903961  -0.000000
  104        0.968862  -0.000000
  105        1.060354  -0.000000
  106        1.181661  -0.000000
  107        1.210587  -0.000000
  108        1.348764  -0.000000
  109        1.350072  -0.000000
  110        1.466296  -0.000000
  111        1.470484  -0.000000
  112        1.542714  -0.000000
  113        1.566707  -0.000000
  114        1.658861  -0.000000
  115        1.699020  -0.000000
  116        1.741705  -0.000000
  117        1.743916  -0.000000
  118        1.791379  -0.000000
  119        1.838861  -0.000000
  120        1.970570  -0.000000
  121        2.084152  -0.000000
  122        2.093721  -0.000000
  123        2.190436  -0.000000
  124        2.233216  -0.000000
  125        2.388960  -0.000000
  126        2.517628  -0.000000
  127        2.923647   0.000000
  128        3.797829   0.000000

  0.1111111E+00  0.9090909E-01  0.4822234E-15  0.6734007E-02
    1      -13.898323   1.000000
    2      -12.671744   1.000000
    3      -12.564411   1.000000
    4      -11.904696   1.000000
    5      -11.594664   1.000000
    6      -11.385528   1.000000
    7      -11.240886   1.000000
    8      -11.187305   1.000000
    9      -11.128943   1.000000
   10      -10.728723   1.000000
   11      -10.600297   1.000000
   12      -10.380625   1.000000
   13      -10.170798   1.000000
   14      -10.126898   1.000000
   15       -9.762014   1.000000
   16       -9.732860   1.000000
   17       -9.108447   1.000000
   18       -8.925083   1.000000
   19       -8.862853   1.000000
   20       -8.756826   1.000000
   21       -8.706645   1.000000
   22       -8.504437   1.000000
   23       -8.293244   1.000000
   24       -8.048448   1.000000
   25       -7.914476   1.000000
   26       -7.871143   1.000000
   27       -7.512977   1.000000
   28       -7.185897   1.000000
   29       -6.730137   1.000000
   30       -6.706015   1.000000
   31       -6.566765   1.000000
   32       -6.378833   1.000000
   33       -6.083351   1.000000
   34       -5.982784   1.000000
   35       -5.704165   1.000000
   36       -5.689149   1.000000
   37       -5.546808   1.000000
   38       -5.457971   1.000000
   39       -5.331046   1.000000
   40       -5.283016   1.000000
   41       -5.271582   1.000000
   42       -5.120534   1.000000
   43       -5.112561   1.000000
   44       -5.045719   1.000000
   45       -5.014429   1.000000
   46       -4.834294   1.000000
   47       -4.775200   1.000000
   48       -4.654913   1.000000
   49       -4.597389   1.000000
   50       -4.506143   1.000000
   51       -4.490786   1.000000
   52       -4.440566   1.000000
   53       -4.425564   1.000000
   54       -4.327237   1.000000
   55       -4.296173   1.000000
   56       -4.122124   1.000000
   57       -4.076063   1.000000
   58       -3.990844   1.000000
   59       -3.904769   1.000000
   60       -3.827914   1.000000
   61       -3.788004   1.000000
   62       -3.580412   1.000000
   63       -3.512380   1.000000
   64       -3.468564   1.000000
   65       -3.409560   1.000000
   66       -3.349368   1.000000
   67       -3.306573   1.000000
   68       -3.218161   1.000000
   69       -3.213532   1.000000
   70       -3.129485   1.000000
   71       -3.055474   1.000000
   72       -2.897471   1.000000
   73       -2.848451   1.000000
   74       -2.627947   1.000000
   75       -2.437453   1.000000
   76       -2.407458   1.000000
   77       -2.401828   1.000000
   78       -2.327375   1.000000
   79       -2.155753   1.000000
   80       -2.081901   1.000000
   81       -1.803772   1.000000
   82       -1.459673   1.000000
   83       -1.379855   1.000000
   84       -1.365400   1.000000
   85       -1.134896   1.000000
   86       -0.999694   1.000000
   87       -0.883499   1.000000
   88       -0.752172   1.000000
   89       -0.720425   1.000000
   90       -0.547679   1.000000
   91       -0.334370   1.000000
   92       -0.115787   1.004480
   93       -0.059489   1.022843
   94        0.089789   0.594164
   95        0.154167   0.112973
   96        0.223242  -0.035457
   97        0.262888  -0.022192
   98        0.393339  -0.000142
   99        0.398879  -0.000105
  100        0.748052  -0.000000
  101        0.851579  -0.000000
  102        0.864218  -0.000000
  103        0.947893  -0.000000
  104        0.997657  -0.000000
  105        1.020258  -0.000000
  106        1.156577  -0.000000
  107        1.300312  -0.000000
  108        1.301946  -0.000000
  109        1.382182  -0.000000
  110        1.409123  -0.000000
  111        1.504229  -0.000000
  112        1.577017  -0.000000
  113        1.630767  -0.000000
  114        1.635606  -0.000000
  115        1.699882  -0.000000
  116        1.700222  -0.000000
  117        1.774658  -0.000000
  118        1.791677  -0.000000
  119        1.903446  -0.000000
  120        1.988344  -0.000000
  121        1.990937  -0.000000
  122        2.088476  -0.000000