 running on   24 total cores
 distrk:  each k-point on   24 cores,    1 groups
 distr:  one band on    6 cores,    4 groups
 using from now: INCAR     
 vasp.5.4.4.18Apr17-6-g9f103f2a35 (build Dec  7 2020 12:43:57) complex           
 POSCAR found type information on POSCAR  Mo V  B 
 POSCAR found :  3 types and      24 ions
 scaLAPACK will be used
 LDA part: xc-table for Pade appr. of Perdew
 POSCAR, INCAR and KPOINTS ok, starting setup
 resort distribution
 resort distribution
 resort distribution
 resort distribution
 resort distribution
 resort distribution
 resort distribution
 resort distribution
 resort distribution
 resort distribution
 resort distribution
 resort distribution
 resort distribution
 resort distribution
 resort distribution
 resort distribution
 resort distribution
 resort distribution
 resort distribution
 resort distribution
 resort distribution
 resort distribution
 resort distribution
 resort distribution
 FFT: planning ...
 WAVECAR not read
 augmentation electrons   94.103082038278728     
 soft         electrons   0.0000000000000000     
 augmentation electrons   94.103082038278728     
 soft         electrons   0.0000000000000000     
 augmentation electrons   94.103082038278728     
 soft         electrons   0.0000000000000000     
 augmentation electrons   94.103082038278728     
 soft         electrons   0.0000000000000000     
 augmentation electrons   94.103082038278728     
 soft         electrons   0.0000000000000000     
 augmentation electrons   94.103082038278728     
 soft         electrons   0.0000000000000000     
 augmentation electrons   94.103082038278728     
 soft         electrons   0.0000000000000000     
 augmentation electrons   94.103082038278728     
 soft         electrons   0.0000000000000000     
 augmentation electrons   94.103082038278728     
 augmentation electrons   94.103082038278728     
 soft         electrons   0.0000000000000000     
 augmentation electrons   94.103082038278728     
 soft         electrons   0.0000000000000000     
 augmentation electrons   94.103082038278728     
 soft         electrons   0.0000000000000000     
 augmentation electrons   94.103082038278728     
 soft         electrons   0.0000000000000000     
 augmentation electrons   94.103082038278728     
 soft         electrons   0.0000000000000000     
 augmentation electrons   94.103082038278728     
 soft         electrons   0.0000000000000000     
 augmentation electrons   94.103082038278728     
 soft         electrons   0.0000000000000000     
 augmentation electrons   94.103082038278728     
 soft         electrons   0.0000000000000000     
 augmentation electrons   94.103082038278728     
 soft         electrons   0.0000000000000000     
 augmentation electrons   94.103082038278728     
 soft         electrons   0.0000000000000000     
 augmentation electrons   94.103082038278728     
 soft         electrons   0.0000000000000000     
 augmentation electrons   94.103082038278728     
 soft         electrons   0.0000000000000000     
 augmentation electrons   94.103082038278728     
 soft         electrons   0.0000000000000000     
 augmentation electrons   94.103082038278728     
 soft         electrons   0.0000000000000000     
 augmentation electrons   94.103082038278728     
 soft         electrons   0.0000000000000000     
 soft         electrons   0.0000000000000000     
 total        electrons   94.103082038278728     
 total        electrons   94.103082038278728     
 total        electrons   94.103082038278728     
 total        electrons   94.103082038278728     
 total        electrons   94.103082038278728     
 total        electrons   94.103082038278728     
 total        electrons   94.103082038278728     
 total        electrons   94.103082038278728     
 total        electrons   94.103082038278728     
 total        electrons   94.103082038278728     
 total        electrons   94.103082038278728     
 total        electrons   94.103082038278728     
 total        electrons   94.103082038278728     
 total        electrons   94.103082038278728     
 total        electrons   94.103082038278728     
 total        electrons   94.103082038278728     
 total        electrons   94.103082038278728     
 total        electrons   94.103082038278728     
 total        electrons   94.103082038278728     
 total        electrons   94.103082038278728     
 total        electrons   94.103082038278728     
 total        electrons   94.103082038278728     
 total        electrons   94.103082038278728     
 total        electrons   94.103082038278728     
 augmentation electrons   1088.1327274178780     
 soft         electrons   0.0000000000000000     
 total        electrons   1088.1327274178780     
 augmentation electrons   1088.1327274178780     
 soft         electrons   0.0000000000000000     
 total        electrons   1088.1327274178780     
 augmentation electrons   1088.1327274178780     
 soft         electrons   0.0000000000000000     
 total        electrons   1088.1327274178780     
 augmentation electrons   1088.1327274178780     
 soft         electrons   0.0000000000000000     
 total        electrons   1088.1327274178780     
 augmentation electrons   1088.1327274178780     
 soft         electrons   0.0000000000000000     
 total        electrons   1088.1327274178780     
 augmentation electrons   1088.1327274178780     
 soft         electrons   0.0000000000000000     
 total        electrons   1088.1327274178780     
 augmentation electrons   1088.1327274178780     
 soft         electrons   0.0000000000000000     
 total        electrons   1088.1327274178780     
 augmentation electrons   1088.1327274178780     
 soft         electrons   0.0000000000000000     
 total        electrons   1088.1327274178780     
 augmentation electrons   1088.1327274178780     
 soft         electrons   0.0000000000000000     
 total        electrons   1088.1327274178780     
 augmentation electrons   1088.1327274178780     
 soft         electrons   0.0000000000000000     
 total        electrons   1088.1327274178780     
 augmentation electrons   1088.1327274178780     
 soft         electrons   0.0000000000000000     
 total        electrons   1088.1327274178780     
 augmentation electrons   1088.1327274178780     
 soft         electrons   0.0000000000000000     
 augmentation electrons   1088.1327274178780     
 soft         electrons   0.0000000000000000     
 total        electrons   1088.1327274178780     
 augmentation electrons   1088.1327274178780     
 soft         electrons   0.0000000000000000     
 total        electrons   1088.1327274178780     
 augmentation electrons   1088.1327274178780     
 soft         electrons   0.0000000000000000     
 total        electrons   1088.1327274178780     
 augmentation electrons   1088.1327274178780     
 soft         electrons   0.0000000000000000     
 total        electrons   1088.1327274178780     
 augmentation electrons   1088.1327274178780     
 soft         electrons   0.0000000000000000     
 augmentation electrons   1088.1327274178780     
 soft         electrons   0.0000000000000000     
 total        electrons   1088.1327274178780     
 augmentation electrons   1088.1327274178780     
 soft         electrons   0.0000000000000000     
 total        electrons   1088.1327274178780     
 augmentation electrons   1088.1327274178780     
 soft         electrons   0.0000000000000000     
 total        electrons   1088.1327274178780     
 augmentation electrons   1088.1327274178780     
 soft         electrons   0.0000000000000000     
 total        electrons   1088.1327274178780     
 augmentation electrons   1088.1327274178780     
 soft         electrons   0.0000000000000000     
 total        electrons   1088.1327274178780     
 augmentation electrons   1088.1327274178780     
 soft         electrons   0.0000000000000000     
 total        electrons   1088.1327274178780     
 augmentation electrons   1088.1327274178780     
 soft         electrons   0.0000000000000000     
 total        electrons   1088.1327274178780     
 total        electrons   1088.1327274178780     
 total        electrons   1088.1327274178780     
 entering main loop
       N       E                     dE             d eps       ncg     rms          rms(c)
RMM:   1     0.905234608412E+03    0.90523E+03   -0.31461E+04  7500   0.136E+03
RMM:   2     0.137812228383E+03   -0.76742E+03   -0.73492E+03  7500   0.344E+02
RMM:   3    -0.125357420076E+02   -0.15035E+03   -0.14843E+03  7500   0.136E+02
RMM:   4    -0.659823486289E+02   -0.53447E+02   -0.50282E+02  7500   0.186E+02
RMM:   5    -0.982838231258E+02   -0.32301E+02   -0.29448E+02  7500   0.905E+01
RMM:   6    -0.119469861927E+03   -0.21186E+02   -0.16564E+02  7500   0.845E+01
RMM:   7    -0.133604819138E+03   -0.14135E+02   -0.12412E+02  7500   0.529E+01
RMM:   8    -0.142184731141E+03   -0.85799E+01   -0.75335E+01  7500   0.585E+01
RMM:   9    -0.160197273962E+03   -0.18013E+02   -0.17490E+02 21169   0.334E+01
RMM:  10    -0.163286445664E+03   -0.30892E+01   -0.34471E+01 20546   0.773E+00
RMM:  11    -0.164168782509E+03   -0.88234E+00   -0.79547E+00 21047   0.264E+00
RMM:  12    -0.164465661726E+03   -0.29688E+00   -0.23119E+00 20628   0.945E-01    0.851E+01
RMM:  13    -0.133616403913E+03    0.30849E+02   -0.29123E+02 17968   0.788E+01    0.410E+01
RMM:  14    -0.152038515613E+03   -0.18422E+02   -0.12057E+02 20652   0.324E+01    0.292E+01
RMM:  15    -0.129461823576E+03    0.22577E+02   -0.14353E+01 18358   0.187E+01    0.177E+01
RMM:  16    -0.124944865567E+03    0.45170E+01   -0.27872E+01 15120   0.314E+01    0.118E+01
RMM:  17    -0.124503488662E+03    0.44138E+00   -0.33748E+00 18329   0.845E+00    0.100E+01
RMM:  18    -0.124683851632E+03   -0.18036E+00   -0.25581E+00 20580   0.224E+00    0.110E+01
RMM:  19    -0.132055238710E+03   -0.73714E+01   -0.18076E+01 15153   0.243E+01    0.233E+01
RMM:  20    -0.128981061922E+03    0.30742E+01   -0.29388E+00 17295   0.847E+00    0.177E+01
RMM:  21    -0.127389472668E+03    0.15916E+01   -0.11392E+00 18038   0.475E+00    0.128E+01
RMM:  22    -0.125982107266E+03    0.14074E+01   -0.13327E+00 17824   0.499E+00    0.664E+00
RMM:  23    -0.126048454142E+03   -0.66347E-01   -0.59779E-01 19932   0.131E+00    0.632E+00
RMM:  24    -0.125899821361E+03    0.14863E+00   -0.11210E-01 20435   0.102E+00    0.549E+00
RMM:  25    -0.125683997028E+03    0.21582E+00   -0.11827E-01 18429   0.181E+00    0.399E+00
RMM:  26    -0.125623487981E+03    0.60509E-01   -0.13868E-01 20408   0.114E+00    0.306E+00
RMM:  27    -0.125582529337E+03    0.40959E-01   -0.85650E-02 19887   0.109E+00    0.214E+00
RMM:  28    -0.125584338992E+03   -0.18097E-02   -0.25588E-02 20588   0.317E-01    0.209E+00
RMM:  29    -0.125578211784E+03    0.61272E-02   -0.14317E-01 18395   0.167E+00    0.168E+00
RMM:  30    -0.125565200152E+03    0.13012E-01   -0.32995E-01 20353   0.259E+00    0.240E+00
RMM:  31    -0.125579315726E+03   -0.14116E-01   -0.23383E-01 20365   0.186E+00    0.276E+00
RMM:  32    -0.125600279911E+03   -0.20964E-01   -0.52967E-02 17991   0.153E+00    0.308E+00
RMM:  33    -0.125577902987E+03    0.22377E-01   -0.55565E-02 18452   0.141E+00    0.285E+00
RMM:  34    -0.125625716990E+03   -0.47814E-01   -0.23294E-02 17432   0.108E+00    0.306E+00
RMM:  35    -0.125896428856E+03   -0.27071E+00   -0.60476E+00 18988   0.131E+01    0.381E+00
RMM:  36    -0.126002128154E+03   -0.10570E+00   -0.96114E-01 18825   0.410E+00    0.400E+00
RMM:  37    -0.126076403929E+03   -0.74276E-01   -0.56011E-01 21105   0.311E+00    0.424E+00
RMM:  38    -0.126073607667E+03    0.27963E-02   -0.63208E-02 20866   0.521E-01    0.423E+00
RMM:  39    -0.126059921842E+03    0.13686E-01   -0.41310E-03 18426   0.307E-01    0.414E+00
RMM:  40    -0.126084581653E+03   -0.24660E-01   -0.16790E-02 18027   0.732E-01    0.422E+00
RMM:  41    -0.126102385066E+03   -0.17803E-01   -0.16049E-02 20067   0.611E-01    0.437E+00
RMM:  42    -0.126106591592E+03   -0.42065E-02   -0.20118E-02 17853   0.846E-01    0.414E+00
RMM:  43    -0.126023658129E+03    0.82933E-01   -0.52100E-01 18294   0.417E+00    0.368E+00
RMM:  44    -0.126046724955E+03   -0.23067E-01   -0.11475E-01 18479   0.166E+00    0.367E+00
RMM:  45    -0.126063550725E+03   -0.16826E-01   -0.43760E-02 18121   0.118E+00    0.345E+00
RMM:  46    -0.126057876689E+03    0.56740E-02   -0.71093E-03 17688   0.480E-01    0.340E+00
RMM:  47    -0.125878382921E+03    0.17949E+00   -0.14496E+00 17764   0.707E+00    0.278E+00
RMM:  48    -0.125945388608E+03   -0.67006E-01   -0.15283E-01 17349   0.275E+00    0.317E+00
RMM:  49    -0.125965186619E+03   -0.19798E-01   -0.49433E-02 20421   0.603E-01    0.332E+00
RMM:  50    -0.125964858209E+03    0.32841E-03   -0.81657E-03 17627   0.562E-01    0.334E+00
RMM:  51    -0.125976903943E+03   -0.12046E-01   -0.64953E-03 18746   0.514E-01    0.316E+00
RMM:  52    -0.125985237892E+03   -0.83339E-02   -0.79972E-03 20126   0.400E-01    0.304E+00
RMM:  53    -0.125982044871E+03    0.31930E-02   -0.36350E-03 19391   0.308E-01    0.306E+00
RMM:  54    -0.125942520292E+03    0.39525E-01   -0.10352E-02 18649   0.562E-01    0.288E+00
RMM:  55    -0.125928649695E+03    0.13871E-01   -0.50318E-03 18710   0.350E-01    0.278E+00
RMM:  56    -0.125926095469E+03    0.25542E-02   -0.10418E-02 19064   0.569E-01    0.264E+00
RMM:  57    -0.125921589122E+03    0.45063E-02   -0.27730E-03 17154   0.381E-01    0.268E+00
RMM:  58    -0.125891625420E+03    0.29964E-01   -0.85722E-03 18144   0.554E-01    0.234E+00
RMM:  59    -0.125903724138E+03   -0.12099E-01   -0.33899E-03 17723   0.265E-01    0.232E+00
RMM:  60    -0.125928489061E+03   -0.24765E-01   -0.83930E-03 18955   0.539E-01    0.232E+00
RMM:  61    -0.125941942284E+03   -0.13453E-01   -0.43159E-03 18825   0.353E-01    0.229E+00
RMM:  62    -0.125970039162E+03   -0.28097E-01   -0.16018E-02 19825   0.649E-01    0.221E+00
RMM:  63    -0.126055602542E+03   -0.85563E-01   -0.90393E-02 17929   0.174E+00    0.235E+00
RMM:  64    -0.126072710709E+03   -0.17108E-01   -0.26974E-02 17956   0.891E-01    0.228E+00
RMM:  65    -0.126064643002E+03    0.80677E-02   -0.10058E-02 20212   0.389E-01    0.225E+00
RMM:  66    -0.126015841686E+03    0.48801E-01   -0.22721E-02 16879   0.911E-01    0.231E+00
RMM:  67    -0.126044722929E+03   -0.28881E-01   -0.54148E-02 19110   0.140E+00    0.215E+00
RMM:  68    -0.126150341334E+03   -0.10562E+00   -0.73051E+00 18394   0.150E+01    0.179E+00
RMM:  69    -0.126253638016E+03   -0.10330E+00   -0.11973E+00 18522   0.480E+00    0.203E+00
RMM:  70    -0.126294537283E+03   -0.40899E-01   -0.20903E-01 19937   0.166E+00    0.183E+00
RMM:  71    -0.126298437114E+03   -0.38998E-02   -0.16765E-02 19653   0.499E-01    0.183E+00
RMM:  72    -0.126293069658E+03    0.53675E-02   -0.20360E-02 19120   0.703E-01    0.191E+00
RMM:  73    -0.126193597337E+03    0.99472E-01   -0.38431E-01 17378   0.361E+00    0.275E+00
RMM:  74    -0.126190179938E+03    0.34174E-02   -0.68602E-02 17552   0.145E+00    0.282E+00
RMM:  75    -0.126283233733E+03   -0.93054E-01   -0.16041E-01 17217   0.236E+00    0.246E+00
RMM:  76    -0.126258393919E+03    0.24840E-01   -0.39748E-02 17265   0.154E+00    0.270E+00
RMM:  77    -0.126290273295E+03   -0.31879E-01   -0.62374E-02 19877   0.129E+00    0.288E+00
RMM:  78    -0.126243502454E+03    0.46771E-01   -0.82740E-02 18759   0.164E+00    0.311E+00
RMM:  79    -0.126257731311E+03   -0.14229E-01   -0.40492E-02 18841   0.906E-01    0.313E+00
RMM:  80    -0.126261805646E+03   -0.40743E-02   -0.18120E-02 18813   0.744E-01    0.303E+00
RMM:  81    -0.126276640421E+03   -0.14835E-01   -0.15390E-02 18525   0.690E-01    0.295E+00
RMM:  82    -0.126273863320E+03    0.27771E-02   -0.21293E-03 18461   0.202E-01    0.295E+00
RMM:  83    -0.126198925549E+03    0.74938E-01   -0.38200E-01 18137   0.341E+00    0.334E+00
RMM:  84    -0.126214593598E+03   -0.15668E-01   -0.41259E-02 17880   0.116E+00    0.336E+00
RMM:  85    -0.126190841232E+03    0.23752E-01   -0.41355E-02 20573   0.881E-01    0.361E+00
RMM:  86    -0.126204155559E+03   -0.13314E-01   -0.12884E-02 19140   0.464E-01    0.364E+00
RMM:  87    -0.126207394165E+03   -0.32386E-02   -0.27920E-03 17819   0.330E-01    0.356E+00
RMM:  88    -0.126281587477E+03   -0.74193E-01   -0.84817E-02 18463   0.140E+00    0.328E+00
RMM:  89    -0.126310882532E+03   -0.29295E-01   -0.48630E-02 18805   0.113E+00    0.319E+00
RMM:  90    -0.126325469427E+03   -0.14587E-01   -0.55743E-02 19462   0.111E+00    0.326E+00
RMM:  91    -0.126320025537E+03    0.54439E-02   -0.84773E-03 19325   0.381E-01    0.332E+00
RMM:  92    -0.126315936752E+03    0.40888E-02   -0.13608E-03 18415   0.200E-01    0.332E+00
RMM:  93    -0.126444990219E+03   -0.12905E+00   -0.64817E-01 17837   0.423E+00    0.293E+00
RMM:  94    -0.126468715672E+03   -0.23725E-01   -0.84631E-02 17254   0.208E+00    0.305E+00
RMM:  95    -0.126472537965E+03   -0.38223E-02   -0.21997E-02 20549   0.472E-01    0.315E+00
RMM:  96    -0.126464679310E+03    0.78587E-02   -0.19091E-03 17704   0.236E-01    0.316E+00
RMM:  97    -0.126466021607E+03   -0.13423E-02   -0.43675E-03 19889   0.319E-01    0.315E+00
RMM:  98    -0.126386228516E+03    0.79793E-01   -0.10774E+00 18458   0.534E+00    0.246E+00
RMM:  99    -0.126373096219E+03    0.13132E-01   -0.24941E-01 18449   0.247E+00    0.246E+00
RMM: 100    -0.126377976920E+03   -0.48807E-02   -0.41229E-02 20961   0.596E-01    0.251E+00
RMM: 101    -0.126382553521E+03   -0.45766E-02   -0.86919E-03 19762   0.410E-01    0.250E+00
RMM: 102    -0.126384772392E+03   -0.22189E-02   -0.67605E-02 18468   0.145E+00    0.271E+00
RMM: 103    -0.126450018955E+03   -0.65247E-01   -0.74914E-01 18960   0.468E+00    0.220E+00
RMM: 104    -0.126474745070E+03   -0.24726E-01   -0.78685E-01 19985   0.377E+00    0.200E+00
RMM: 105    -0.126508721605E+03   -0.33977E-01   -0.31747E-01 19911   0.220E+00    0.187E+00
RMM: 106    -0.126426697934E+03    0.82024E-01   -0.26129E-01 18521   0.275E+00    0.177E+00
RMM: 107    -0.126411024320E+03    0.15674E-01   -0.24883E-01 19134   0.241E+00    0.185E+00
RMM: 108    -0.126378906507E+03    0.32118E-01   -0.39675E-01 19201   0.319E+00    0.183E+00
RMM: 109    -0.126366242620E+03    0.12664E-01   -0.16444E-01 18730   0.160E+00    0.175E+00
RMM: 110    -0.126357072708E+03    0.91699E-02   -0.74192E-02 19600   0.112E+00    0.186E+00
RMM: 111    -0.126343595835E+03    0.13477E-01   -0.12423E-01 19857   0.160E+00    0.207E+00
RMM: 112    -0.126337703905E+03    0.58919E-02   -0.46083E-02 19516   0.814E-01    0.221E+00
RMM: 113    -0.126352723487E+03   -0.15020E-01   -0.91069E-01 17287   0.501E+00    0.288E+00
RMM: 114    -0.126368292727E+03   -0.15569E-01   -0.12414E-01 17367   0.190E+00    0.295E+00
RMM: 115    -0.126365726817E+03    0.25659E-02   -0.42266E-02 17499   0.120E+00    0.264E+00
RMM: 116    -0.126355770475E+03    0.99563E-02   -0.81443E-02 19623   0.163E+00    0.291E+00
RMM: 117    -0.126344608495E+03    0.11162E-01   -0.53489E-01 17865   0.405E+00    0.218E+00
RMM: 118    -0.126271525926E+03    0.73083E-01   -0.19907E+00 18157   0.798E+00    0.481E+00
RMM: 119    -0.126301759646E+03   -0.30234E-01   -0.29026E-01 18072   0.253E+00    0.486E+00
RMM: 120    -0.126296316618E+03    0.54430E-02   -0.65006E-02 20052   0.102E+00    0.481E+00
RMM: 121    -0.126307914151E+03   -0.11598E-01   -0.23767E-01 18608   0.250E+00    0.554E+00
RMM: 122    -0.126317680919E+03   -0.97668E-02   -0.91575E-02 18525   0.136E+00    0.543E+00
RMM: 123    -0.126346458087E+03   -0.28777E-01   -0.57768E-01 17896   0.424E+00    0.346E+00
RMM: 124    -0.126350511219E+03   -0.40531E-02   -0.90096E-02 17621   0.202E+00    0.319E+00
RMM: 125    -0.126339923601E+03    0.10588E-01   -0.67592E-02 19102   0.135E+00    0.380E+00
RMM: 126    -0.126338957896E+03    0.96570E-03   -0.54712E-03 18292   0.437E-01    0.374E+00
RMM: 127    -0.126339572395E+03   -0.61450E-03   -0.16678E-03 19867   0.135E-01    0.375E+00
RMM: 128    -0.126391031896E+03   -0.51460E-01   -0.77567E-01 18146   0.469E+00    0.526E+00
RMM: 129    -0.126373094050E+03    0.17938E-01   -0.78137E-02 17693   0.176E+00    0.509E+00
RMM: 130    -0.126365311474E+03    0.77826E-02   -0.32647E-02 17944   0.114E+00    0.491E+00
RMM: 131    -0.126346112981E+03    0.19198E-01   -0.58698E-02 19435   0.128E+00    0.563E+00
RMM: 132    -0.126354238271E+03   -0.81253E-02   -0.11687E-01 19789   0.165E+00    0.639E+00
RMM: 133    -0.126309142197E+03    0.45096E-01   -0.37565E-01 18149   0.359E+00    0.519E+00
RMM: 134    -0.126308421282E+03    0.72092E-03   -0.91427E-02 18172   0.143E+00    0.499E+00
RMM: 135    -0.126311198407E+03   -0.27771E-02   -0.11928E-02 20263   0.389E-01    0.501E+00
RMM: 136    -0.126310428936E+03    0.76947E-03   -0.16554E-03 18241   0.173E-01    0.512E+00
RMM: 137    -0.126316473040E+03   -0.60441E-02   -0.91072E-03 18912   0.479E-01    0.499E+00
RMM: 138    -0.126285433294E+03    0.31040E-01   -0.37009E+00 18675   0.918E+00    0.155E+00
RMM: 139    -0.126319385388E+03   -0.33952E-01   -0.67151E-01 18134   0.499E+00    0.150E+00
RMM: 140    -0.126339485672E+03   -0.20100E-01   -0.22430E-01 20151   0.181E+00    0.131E+00
RMM: 141    -0.126336919757E+03    0.25659E-02   -0.35880E-01 17941   0.328E+00    0.120E+00
RMM: 142    -0.126354514906E+03   -0.17595E-01   -0.13161E-01 18673   0.245E+00    0.112E+00
RMM: 143    -0.126345660860E+03    0.88540E-02   -0.30714E-01 17255   0.350E+00    0.953E-01
RMM: 144    -0.126353954141E+03   -0.82933E-02   -0.57500E-02 17367   0.152E+00    0.937E-01
RMM: 145    -0.126352806362E+03    0.11478E-02   -0.13326E-02 20442   0.355E-01    0.958E-01
RMM: 146    -0.126371651678E+03   -0.18845E-01   -0.32784E-01 17339   0.326E+00    0.790E-01
RMM: 147    -0.126352416437E+03    0.19235E-01   -0.46242E-01 19040   0.420E+00    0.633E-01
RMM: 148    -0.126361909090E+03   -0.94927E-02   -0.23148E-01 18745   0.255E+00    0.448E-01
RMM: 149    -0.126370621270E+03   -0.87122E-02   -0.61544E-02 19141   0.106E+00    0.408E-01
RMM: 150    -0.126367012574E+03    0.36087E-02   -0.64427E-02 19153   0.138E+00    0.452E-01
RMM: 151    -0.126364561767E+03    0.24508E-02   -0.35556E-02 18743   0.894E-01    0.449E-01
RMM: 152    -0.126366327609E+03   -0.17658E-02   -0.28433E-02 20211   0.805E-01    0.449E-01
RMM: 153    -0.126368814876E+03   -0.24873E-02   -0.20536E-01 18859   0.243E+00    0.546E-01
RMM: 154    -0.126370992238E+03   -0.21774E-02   -0.86223E-02 18263   0.168E+00    0.643E-01
RMM: 155    -0.126373623656E+03   -0.26314E-02   -0.45611E-02 19916   0.101E+00    0.646E-01
RMM: 156    -0.126374494128E+03   -0.87047E-03   -0.18557E-02 18682   0.721E-01    0.769E-01
RMM: 157    -0.126371475275E+03    0.30189E-02   -0.81165E-02 18315   0.159E+00    0.612E-01
RMM: 158    -0.126371391360E+03    0.83915E-04   -0.66019E-02 19393   0.134E+00    0.362E-01
RMM: 159    -0.126373394749E+03   -0.20034E-02   -0.34914E-02 20085   0.796E-01    0.330E-01
RMM: 160    -0.126372255155E+03    0.11396E-02   -0.44865E-02 19829   0.967E-01    0.305E-01
RMM: 161    -0.126369869571E+03    0.23856E-02   -0.68002E-02 19771   0.128E+00    0.300E-01
RMM: 162    -0.126367592359E+03    0.22772E-02   -0.84327E-02 20094   0.140E+00    0.354E-01
RMM: 163    -0.126371452187E+03   -0.38598E-02   -0.34164E-02 19287   0.831E-01    0.389E-01
RMM: 164    -0.126371709233E+03   -0.25705E-03   -0.42176E-03 19401   0.231E-01    0.384E-01
RMM: 165    -0.126376057396E+03   -0.43482E-02   -0.22360E-02 18961   0.783E-01    0.277E-01
RMM: 166    -0.126375703444E+03    0.35395E-03   -0.26396E-03 17885   0.341E-01    0.280E-01
RMM: 167    -0.126378756549E+03   -0.30531E-02   -0.16158E-02 19082   0.674E-01    0.263E-01
RMM: 168    -0.126382676869E+03   -0.39203E-02   -0.82116E-02 19024   0.154E+00    0.284E-01
RMM: 169    -0.126379109559E+03    0.35673E-02   -0.42041E-02 18828   0.108E+00    0.334E-01
RMM: 170    -0.126371095760E+03    0.80138E-02   -0.66197E-02 19144   0.131E+00    0.555E-01
RMM: 171    -0.126374944696E+03   -0.38489E-02   -0.46942E-02 18864   0.133E+00    0.572E-01
RMM: 172    -0.126373498324E+03    0.14464E-02   -0.64908E-03 18322   0.471E-01    0.582E-01
RMM: 173    -0.126373727336E+03   -0.22901E-03   -0.50226E-03 19920   0.370E-01    0.540E-01
RMM: 174    -0.126372507371E+03    0.12200E-02   -0.13904E-02 18637   0.642E-01    0.419E-01
RMM: 175    -0.126371566687E+03    0.94068E-03   -0.29882E-02 20275   0.828E-01    0.261E-01
RMM: 176    -0.126364073839E+03    0.74928E-02   -0.14887E-01 19444   0.196E+00    0.329E-01
RMM: 177    -0.126367589533E+03   -0.35157E-02   -0.16091E-02 18007   0.775E-01    0.291E-01
RMM: 178    -0.126368541092E+03   -0.95156E-03   -0.82567E-03 17830   0.580E-01    0.263E-01
RMM: 179    -0.126367568736E+03    0.97236E-03   -0.27129E-03 17745   0.327E-01    0.283E-01
RMM: 180    -0.126367567979E+03    0.75705E-06   -0.53705E-04 19145   0.991E-02    0.283E-01
RMM: 181    -0.126369615764E+03   -0.20478E-02   -0.57711E-03 18021   0.413E-01    0.297E-01
RMM: 182    -0.126369674710E+03   -0.58946E-04   -0.77699E-04 17466   0.151E-01    0.298E-01
RMM: 183    -0.126373806628E+03   -0.41319E-02   -0.21975E-02 19170   0.774E-01    0.202E-01
RMM: 184    -0.126373618352E+03    0.18828E-03   -0.20114E-03 18365   0.200E-01    0.219E-01
RMM: 185    -0.126371464160E+03    0.21542E-02   -0.75551E-03 17924   0.482E-01    0.226E-01
RMM: 186    -0.126373393666E+03   -0.19295E-02   -0.28502E-03 17956   0.363E-01    0.207E-01
RMM: 187    -0.126374347067E+03   -0.95340E-03   -0.22117E-02 17785   0.853E-01    0.201E-01
RMM: 188    -0.126378720403E+03   -0.43733E-02   -0.39633E-02 20566   0.993E-01    0.265E-01
RMM: 189    -0.126378993802E+03   -0.27340E-03   -0.33375E-03 17121   0.374E-01    0.189E-01
RMM: 190    -0.126380381073E+03   -0.13873E-02   -0.52954E-03 20353   0.374E-01    0.199E-01
RMM: 191    -0.126377892010E+03    0.24891E-02   -0.29287E-02 18006   0.105E+00    0.205E-01
RMM: 192    -0.126382203538E+03   -0.43115E-02   -0.33720E-02 19639   0.999E-01    0.208E-01
RMM: 193    -0.126381250423E+03    0.95311E-03   -0.11921E-02 17432   0.753E-01    0.189E-01
RMM: 194    -0.126379649549E+03    0.16009E-02   -0.30442E-03 17583   0.321E-01    0.186E-01
RMM: 195    -0.126382925655E+03   -0.32761E-02   -0.12164E-02 19121   0.597E-01    0.167E-01
RMM: 196    -0.126386717534E+03   -0.37919E-02   -0.10956E-02 18971   0.495E-01    0.171E-01
RMM: 197    -0.126387666289E+03   -0.94876E-03   -0.60805E-03 19720   0.365E-01    0.175E-01
RMM: 198    -0.126386397319E+03    0.12690E-02   -0.11121E-02 18920   0.550E-01    0.196E-01
RMM: 199    -0.126387687042E+03   -0.12897E-02   -0.24509E-03 18577   0.249E-01    0.199E-01
RMM: 200    -0.126387596638E+03    0.90405E-04   -0.59895E-04 20399   0.804E-02
   1 F= -.12638760E+03 E0= -.12638684E+03  d E =-.126388E+03
 curvature:   0.00 expect dE= 0.000E+00 dE for cont linesearch  0.000E+00
 trial: gam= 0.00000 g(F)=  0.291E-01 g(S)=  0.550E-01 ort = 0.000E+00 (trialstep = 0.100E+01)
 search vector abs. value=  0.840E-01
 bond charge predicted
       N       E                     dE             d eps       ncg     rms          rms(c)
RMM:   1    -0.126412577846E+03   -0.24891E-01   -0.25094E+00 15485   0.698E+00    0.118E+00
RMM:   2    -0.126434834317E+03   -0.22256E-01   -0.26323E-01 15223   0.512E+00    0.920E-01
RMM:   3    -0.126443810882E+03   -0.89766E-02   -0.62330E-02 18802   0.111E+00    0.103E+00
RMM:   4    -0.126441568902E+03    0.22420E-02   -0.12725E-02 17870   0.546E-01    0.894E-01
RMM:   5    -0.126444610931E+03   -0.30420E-02   -0.83824E-03 20164   0.262E-01    0.750E-01
RMM:   6    -0.126462452792E+03   -0.17842E-01   -0.51796E-02 18489   0.116E+00    0.512E-01
RMM:   7    -0.126466368745E+03   -0.39160E-02   -0.12389E-02 18199   0.515E-01    0.527E-01
RMM:   8    -0.126474645191E+03   -0.82764E-02   -0.13460E-02 19647   0.522E-01    0.631E-01
RMM:   9    -0.126447695623E+03    0.26950E-01   -0.66054E-02 17503   0.144E+00    0.665E-01
RMM:  10    -0.126435664861E+03    0.12031E-01   -0.76695E-02 19668   0.128E+00    0.734E-01
RMM:  11    -0.126429587067E+03    0.60778E-02   -0.99534E-02 19556   0.143E+00    0.725E-01
RMM:  12    -0.126430730620E+03   -0.11436E-02   -0.33936E-02 18874   0.787E-01    0.653E-01
RMM:  13    -0.126431229590E+03   -0.49897E-03   -0.42574E-03 19736   0.241E-01    0.649E-01
RMM:  14    -0.126428183140E+03    0.30465E-02   -0.59264E-01 17925   0.386E+00    0.772E-01
RMM:  15    -0.126432313654E+03   -0.41305E-02   -0.42702E-02 16934   0.148E+00    0.633E-01
RMM:  16    -0.126425902969E+03    0.64107E-02   -0.17416E-01 17572   0.231E+00    0.401E-01
RMM:  17    -0.126427461077E+03   -0.15581E-02   -0.54309E-02 18823   0.104E+00    0.397E-01
RMM:  18    -0.126435791616E+03   -0.83305E-02   -0.13064E-01 19232   0.162E+00    0.370E-01
RMM:  19    -0.126439269670E+03   -0.34781E-02   -0.24941E-02 18621   0.640E-01    0.384E-01
RMM:  20    -0.126439304484E+03   -0.34814E-04   -0.41890E-03 20250   0.220E-01    0.397E-01
RMM:  21    -0.126437456708E+03    0.18478E-02   -0.12775E-03 17461   0.209E-01    0.402E-01
RMM:  22    -0.126437614038E+03   -0.15733E-03   -0.13863E-04 15479   0.730E-02    0.398E-01
RMM:  23    -0.126438427890E+03   -0.81385E-03   -0.24526E-04 16496   0.881E-02    0.395E-01
RMM:  24    -0.126437282420E+03    0.11455E-02   -0.11031E-03 17638   0.190E-01    0.395E-01
RMM:  25    -0.126464787560E+03   -0.27505E-01   -0.19740E-01 17913   0.234E+00    0.362E-01
RMM:  26    -0.126467323727E+03   -0.25362E-02   -0.28397E-02 17610   0.877E-01    0.421E-01
RMM:  27    -0.126462827955E+03    0.44958E-02   -0.33094E-03 19088   0.288E-01    0.416E-01
RMM:  28    -0.126456164077E+03    0.66639E-02   -0.91205E-03 18374   0.501E-01    0.418E-01
RMM:  29    -0.126451405694E+03    0.47584E-02   -0.17222E-02 20250   0.600E-01    0.476E-01
RMM:  30    -0.126450697500E+03    0.70819E-03   -0.33286E-03 19732   0.183E-01    0.477E-01
RMM:  31    -0.126450429941E+03    0.26756E-03   -0.43326E-04 18620   0.748E-02    0.470E-01
RMM:  32    -0.126450067878E+03    0.36206E-03   -0.42044E-04 18864   0.921E-02    0.488E-01
RMM:  33    -0.126452063944E+03   -0.19961E-02   -0.51709E-03 17927   0.405E-01    0.409E-01
RMM:  34    -0.126453945208E+03   -0.18813E-02   -0.32933E-03 18723   0.261E-01    0.393E-01
RMM:  35    -0.126453890661E+03    0.54547E-04   -0.48223E-04 19710   0.787E-02    0.401E-01
RMM:  36    -0.126459357186E+03   -0.54665E-02   -0.54956E-03 17762   0.384E-01    0.387E-01
RMM:  37    -0.126459427726E+03   -0.70540E-04   -0.80700E-04 16980   0.151E-01    0.397E-01
RMM:  38    -0.126462003365E+03   -0.25756E-02   -0.23285E-03 19672   0.224E-01    0.396E-01
RMM:  39    -0.126462316745E+03   -0.31338E-03   -0.63660E-04 18479   0.102E-01    0.417E-01
RMM:  40    -0.126463383648E+03   -0.10669E-02   -0.46776E-04 19361   0.969E-02    0.426E-01
RMM:  41    -0.126459172899E+03    0.42107E-02   -0.21796E-03 17451   0.262E-01    0.426E-01
RMM:  42    -0.126458149801E+03    0.10231E-02   -0.26017E-03 19328   0.273E-01    0.444E-01
RMM:  43    -0.126455391633E+03    0.27582E-02   -0.24382E-03 18379   0.246E-01    0.457E-01
RMM:  44    -0.126456027695E+03   -0.63606E-03   -0.58049E-04 17619   0.144E-01    0.443E-01
RMM:  45    -0.126453053381E+03    0.29743E-02   -0.93128E-03 18093   0.498E-01    0.385E-01
RMM:  46    -0.126453622788E+03   -0.56941E-03   -0.37209E-03 17982   0.294E-01    0.370E-01
RMM:  47    -0.126461944719E+03   -0.83219E-02   -0.18170E-02 17479   0.734E-01    0.392E-01
RMM:  48    -0.126456941225E+03    0.50035E-02   -0.37288E-03 16914   0.454E-01    0.418E-01
RMM:  49    -0.126478630510E+03   -0.21689E-01   -0.71085E-02 18164   0.138E+00    0.380E-01
RMM:  50    -0.126483412290E+03   -0.47818E-02   -0.18946E-02 18098   0.642E-01    0.404E-01
RMM:  51    -0.126487613531E+03   -0.42012E-02   -0.12087E-02 20119   0.452E-01    0.456E-01
RMM:  52    -0.126468736780E+03    0.18877E-01   -0.30158E-02 17756   0.973E-01    0.443E-01
RMM:  53    -0.126469734644E+03   -0.99786E-03   -0.40499E-03 17297   0.367E-01    0.417E-01
RMM:  54    -0.126471070837E+03   -0.13362E-02   -0.72223E-03 18580   0.432E-01    0.392E-01
RMM:  55    -0.126469473212E+03    0.15976E-02   -0.16395E-03 17855   0.196E-01    0.402E-01
RMM:  56    -0.126467853656E+03    0.16196E-02   -0.13410E-03 19798   0.162E-01    0.395E-01
RMM:  57    -0.126486792438E+03   -0.18939E-01   -0.48094E-02 17413   0.119E+00    0.405E-01
RMM:  58    -0.126483193907E+03    0.35985E-02   -0.50423E-03 17165   0.508E-01    0.449E-01
RMM:  59    -0.126494233003E+03   -0.11039E-01   -0.15214E-02 19977   0.581E-01    0.439E-01
RMM:  60    -0.126494795380E+03   -0.56238E-03   -0.33084E-03 18527   0.237E-01    0.465E-01
RMM:  61    -0.126492132674E+03    0.26627E-02   -0.71665E-04 17893   0.155E-01    0.474E-01
RMM:  62    -0.126504682567E+03   -0.12550E-01   -0.14010E-02 18082   0.616E-01    0.497E-01
RMM:  63    -0.126505083622E+03   -0.40106E-03   -0.21951E-03 17386   0.227E-01    0.516E-01
RMM:  64    -0.126505093926E+03   -0.10304E-04   -0.71901E-04 20022   0.101E-01    0.548E-01
RMM:  65    -0.126506498862E+03   -0.14049E-02   -0.37755E-04 18281   0.856E-02    0.550E-01
RMM:  66    -0.126504860385E+03    0.16385E-02   -0.31663E-04 19209   0.107E-01    0.571E-01
RMM:  67    -0.126468833900E+03    0.36026E-01   -0.17077E-01 17784   0.218E+00    0.446E-01
RMM:  68    -0.126469919788E+03   -0.10859E-02   -0.28393E-02 17551   0.864E-01    0.419E-01
RMM:  69    -0.126468303298E+03    0.16165E-02   -0.13216E-02 21028   0.419E-01    0.360E-01
RMM:  70    -0.126469063751E+03   -0.76045E-03   -0.69858E-04 18567   0.749E-02    0.355E-01
RMM:  71    -0.126469957592E+03   -0.89384E-03   -0.34627E-04 18571   0.869E-02    0.348E-01
RMM:  72    -0.126470786951E+03   -0.82936E-03   -0.83883E-04 19271   0.140E-01    0.343E-01
RMM:  73    -0.126471282955E+03   -0.49600E-03   -0.23714E-04 17954   0.675E-02    0.348E-01
RMM:  74    -0.126472496215E+03   -0.12133E-02   -0.64117E-04 18598   0.132E-01    0.364E-01
RMM:  75    -0.126473416089E+03   -0.91987E-03   -0.55750E-04 18871   0.111E-01    0.379E-01
RMM:  76    -0.126472540720E+03    0.87537E-03   -0.11874E-04 17095   0.715E-02    0.376E-01
RMM:  77    -0.126455815753E+03    0.16725E-01   -0.79669E-02 18044   0.147E+00    0.377E-01
RMM:  78    -0.126458162294E+03   -0.23465E-02   -0.84366E-03 17406   0.629E-01    0.392E-01
RMM:  79    -0.126458138088E+03    0.24206E-04   -0.22601E-03 20327   0.156E-01    0.367E-01
RMM:  80    -0.126457711829E+03    0.42626E-03   -0.37027E-04 19555   0.646E-02    0.354E-01
RMM:  81    -0.126458965109E+03   -0.12533E-02   -0.75932E-04 18641   0.155E-01    0.372E-01
RMM:  82    -0.126470727851E+03   -0.11763E-01   -0.11704E-01 18211   0.178E+00    0.376E-01
RMM:  83    -0.126472675609E+03   -0.19478E-02   -0.15978E-02 17858   0.629E-01    0.403E-01
RMM:  84    -0.126466254293E+03    0.64213E-02   -0.55758E-03 17618   0.424E-01    0.387E-01
RMM:  85    -0.126466435016E+03   -0.18072E-03   -0.65521E-04 16686   0.149E-01    0.377E-01
RMM:  86    -0.126467247955E+03   -0.81294E-03   -0.10389E-03 19204   0.173E-01    0.353E-01
RMM:  87    -0.126469022362E+03   -0.17744E-02   -0.12788E-03 19496   0.169E-01    0.324E-01
RMM:  88    -0.126471325296E+03   -0.23029E-02   -0.21019E-03 18468   0.248E-01    0.340E-01
RMM:  89    -0.126484802481E+03   -0.13477E-01   -0.36751E-02 19487   0.971E-01    0.433E-01
RMM:  90    -0.126479386933E+03    0.54155E-02   -0.31899E-03 16937   0.385E-01    0.448E-01
RMM:  91    -0.126478915469E+03    0.47146E-03   -0.71961E-04 17920   0.127E-01    0.433E-01
RMM:  92    -0.126474481155E+03    0.44343E-02   -0.99549E-03 18036   0.541E-01    0.345E-01
RMM:  93    -0.126486080152E+03   -0.11599E-01   -0.20967E-02 18795   0.873E-01    0.329E-01
RMM:  94    -0.126481477511E+03    0.46026E-02   -0.27723E-03 16798   0.385E-01    0.338E-01
RMM:  95    -0.126481548012E+03   -0.70501E-04   -0.10753E-03 19266   0.150E-01    0.316E-01
RMM:  96    -0.126481559304E+03   -0.11291E-04   -0.13135E-04 18062   0.343E-02    0.314E-01
RMM:  97    -0.126499411374E+03   -0.17852E-01   -0.36238E-02 17912   0.103E+00    0.353E-01
RMM:  98    -0.126501834357E+03   -0.24230E-02   -0.69677E-03 17780   0.443E-01    0.390E-01
RMM:  99    -0.126500332314E+03    0.15020E-02   -0.83265E-04 19516   0.953E-02    0.394E-01
RMM: 100    -0.126499365024E+03    0.96729E-03   -0.23813E-03 17971   0.274E-01    0.400E-01
RMM: 101    -0.126501621033E+03   -0.22560E-02   -0.19996E-03 19202   0.222E-01    0.413E-01
RMM: 102    -0.126505624264E+03   -0.40032E-02   -0.11902E-02 19503   0.537E-01    0.454E-01
RMM: 103    -0.126505089168E+03    0.53510E-03   -0.24735E-03 19122   0.227E-01    0.451E-01
RMM: 104    -0.126503299222E+03    0.17899E-02   -0.23385E-03 18377   0.267E-01    0.470E-01
RMM: 105    -0.126504797006E+03   -0.14978E-02   -0.10145E-03 18183   0.173E-01    0.489E-01
RMM: 106    -0.126506171293E+03   -0.13743E-02   -0.23265E-03 19535   0.239E-01    0.505E-01
RMM: 107    -0.126486824858E+03    0.19346E-01   -0.40656E-02 18215   0.108E+00    0.350E-01
RMM: 108    -0.126487198050E+03   -0.37319E-03   -0.56704E-03 17732   0.386E-01    0.332E-01
RMM: 109    -0.126478612262E+03    0.85858E-02   -0.15257E-02 19966   0.562E-01    0.292E-01
RMM: 110    -0.126486350061E+03   -0.77378E-02   -0.54465E-03 18290   0.486E-01    0.297E-01
RMM: 111    -0.126483642121E+03    0.27079E-02   -0.80987E-04 16738   0.207E-01    0.310E-01
RMM: 112    -0.126529467653E+03   -0.45826E-01   -0.19414E-01 18066   0.232E+00    0.504E-01
RMM: 113    -0.126541691577E+03   -0.12224E-01   -0.48843E-02 18106   0.108E+00    0.559E-01
RMM: 114    -0.126546565777E+03   -0.48742E-02   -0.14816E-02 20369   0.438E-01    0.651E-01
RMM: 115    -0.126547947217E+03   -0.13814E-02   -0.15499E-03 19454   0.121E-01    0.663E-01
RMM: 116    -0.126542111010E+03    0.58362E-02   -0.28179E-03 18451   0.302E-01    0.633E-01
RMM: 117    -0.126575554471E+03   -0.33443E-01   -0.57411E-02 17940   0.132E+00    0.843E-01
RMM: 118    -0.126573601787E+03    0.19527E-02   -0.54312E-03 17485   0.437E-01    0.862E-01
RMM: 119    -0.126570320012E+03    0.32818E-02   -0.16031E-03 19734   0.197E-01    0.828E-01
RMM: 120    -0.126566460423E+03    0.38596E-02   -0.16400E-03 18497   0.220E-01    0.780E-01
RMM: 121    -0.126570366973E+03   -0.39065E-02   -0.51695E-04 17598   0.149E-01    0.795E-01
RMM: 122    -0.126562467544E+03    0.78994E-02   -0.64083E-03 17696   0.455E-01    0.819E-01
RMM: 123    -0.126557345398E+03    0.51221E-02   -0.25217E-03 18069   0.302E-01    0.781E-01
RMM: 124    -0.126559271864E+03   -0.19265E-02   -0.57079E-04 18933   0.129E-01    0.792E-01
RMM: 125    -0.126540158113E+03    0.19114E-01   -0.20027E-02 18274   0.742E-01    0.681E-01
RMM: 126    -0.126547833695E+03   -0.76756E-02   -0.27122E-03 17066   0.387E-01    0.695E-01
RMM: 127    -0.126533679845E+03    0.14154E-01   -0.16503E-02 19128   0.721E-01    0.718E-01
RMM: 128    -0.126557554944E+03   -0.23875E-01   -0.27374E-02 18436   0.942E-01    0.872E-01
RMM: 129    -0.126558701534E+03   -0.11466E-02   -0.39214E-03 18117   0.301E-01    0.891E-01
RMM: 130    -0.126555112162E+03    0.35894E-02   -0.53722E-04 19029   0.124E-01    0.872E-01
RMM: 131    -0.126553126476E+03    0.19857E-02   -0.31888E-04 17813   0.959E-02    0.862E-01
RMM: 132    -0.126545012920E+03    0.81136E-02   -0.43633E-03 19155   0.334E-01    0.797E-01
RMM: 133    -0.126534417915E+03    0.10595E-01   -0.97757E-03 19922   0.458E-01    0.708E-01
RMM: 134    -0.126528558442E+03    0.58595E-02   -0.56214E-03 19013   0.335E-01    0.673E-01
RMM: 135    -0.126537871986E+03   -0.93135E-02   -0.51562E-03 18472   0.428E-01    0.713E-01
RMM: 136    -0.126536040242E+03    0.18317E-02   -0.37437E-04 16177   0.144E-01    0.710E-01
RMM: 137    -0.126517435975E+03    0.18604E-01   -0.24967E-02 18045   0.905E-01    0.654E-01
RMM: 138    -0.126521196926E+03   -0.37610E-02   -0.24631E-03 17017   0.382E-01    0.632E-01
RMM: 139    -0.126521442942E+03   -0.24602E-03   -0.41598E-04 18918   0.871E-02    0.662E-01
RMM: 140    -0.126524871082E+03   -0.34281E-02   -0.15417E-03 18128   0.209E-01    0.709E-01
RMM: 141    -0.126527041969E+03   -0.21709E-02   -0.25634E-03 20488   0.252E-01    0.748E-01
RMM: 142    -0.126486873156E+03    0.40169E-01   -0.12832E-01 18070   0.194E+00    0.525E-01
RMM: 143    -0.126487523842E+03   -0.65069E-03   -0.21898E-02 17913   0.797E-01    0.495E-01
RMM: 144    -0.126459659869E+03    0.27864E-01   -0.19770E-01 18987   0.218E+00    0.366E-01
RMM: 145    -0.126457649112E+03    0.20108E-02   -0.72747E-02 18595   0.119E+00    0.353E-01
RMM: 146    -0.126508819424E+03   -0.51170E-01   -0.55922E-01 17839   0.396E+00    0.578E-01
RMM: 147    -0.126561785896E+03   -0.52966E-01   -0.34038E-01 19060   0.267E+00    0.759E-01
RMM: 148    -0.126567956638E+03   -0.61707E-02   -0.55989E-02 20546   0.720E-01    0.951E-01
RMM: 149    -0.126583035066E+03   -0.15078E-01   -0.18470E-02 19225   0.563E-01    0.105E+00
RMM: 150    -0.126610006074E+03   -0.26971E-01   -0.36226E-02 19876   0.882E-01    0.128E+00
RMM: 151    -0.126623462796E+03   -0.13457E-01   -0.19035E-02 19244   0.617E-01    0.134E+00
RMM: 152    -0.126622530530E+03    0.93227E-03   -0.35860E-02 19278   0.970E-01    0.139E+00
RMM: 153    -0.126591140876E+03    0.31390E-01   -0.35596E-02 18624   0.117E+00    0.116E+00
RMM: 154    -0.126588256664E+03    0.28842E-02   -0.73653E-03 18423   0.392E-01    0.113E+00
RMM: 155    -0.126616098002E+03   -0.27841E-01   -0.21286E-02 17658   0.832E-01    0.130E+00
RMM: 156    -0.126606260136E+03    0.98379E-02   -0.99718E-03 18142   0.619E-01    0.126E+00
RMM: 157    -0.126636211244E+03   -0.29951E-01   -0.33486E-02 18997   0.959E-01    0.140E+00
RMM: 158    -0.126640967301E+03   -0.47561E-02   -0.64971E-03 18441   0.354E-01    0.142E+00
RMM: 159    -0.126617449144E+03    0.23518E-01   -0.13360E-02 17876   0.651E-01    0.128E+00
RMM: 160    -0.126628284691E+03   -0.10836E-01   -0.29418E-03 17422   0.390E-01    0.132E+00
RMM: 161    -0.126645768812E+03   -0.17484E-01   -0.18669E-02 18356   0.720E-01    0.155E+00
RMM: 162    -0.126542753516E+03    0.10302E+00   -0.31255E-01 18093   0.307E+00    0.887E-01
RMM: 163    -0.126546579910E+03   -0.38264E-02   -0.44080E-02 17799   0.111E+00    0.831E-01
RMM: 164    -0.126548656573E+03   -0.20767E-02   -0.74374E-03 20406   0.241E-01    0.824E-01
RMM: 165    -0.126547451051E+03    0.12055E-02   -0.25939E-03 18552   0.269E-01    0.833E-01
RMM: 166    -0.126516661137E+03    0.30790E-01   -0.70983E-02 18344   0.144E+00    0.614E-01
RMM: 167    -0.126537812046E+03   -0.21151E-01   -0.24201E-02 17722   0.109E+00    0.738E-01
RMM: 168    -0.126560620247E+03   -0.22808E-01   -0.45175E-02 18168   0.106E+00    0.103E+00
RMM: 169    -0.126566371445E+03   -0.57512E-02   -0.10207E-02 18494   0.463E-01    0.109E+00
RMM: 170    -0.126580175109E+03   -0.13804E-01   -0.18370E-02 19028   0.634E-01    0.127E+00
RMM: 171    -0.126571279253E+03    0.88959E-02   -0.12218E-02 19066   0.617E-01    0.124E+00
RMM: 172    -0.126548800447E+03    0.22479E-01   -0.27538E-02 18168   0.871E-01    0.111E+00
RMM: 173    -0.126547026528E+03    0.17739E-02   -0.48099E-03 18394   0.340E-01    0.111E+00
RMM: 174    -0.126549534455E+03   -0.25079E-02   -0.98562E-04 19312   0.164E-01    0.110E+00
RMM: 175    -0.126545272955E+03    0.42615E-02   -0.16036E-03 18860   0.209E-01    0.105E+00
RMM: 176    -0.126545149196E+03    0.12376E-03   -0.25206E-04 17540   0.716E-02    0.105E+00
RMM: 177    -0.126543194732E+03    0.19545E-02   -0.11176E-02 18224   0.541E-01    0.103E+00
RMM: 178    -0.126544031654E+03   -0.83692E-03   -0.11605E-03 17802   0.201E-01    0.103E+00
RMM: 179    -0.126537217889E+03    0.68138E-02   -0.37714E-03 18539   0.323E-01    0.971E-01
RMM: 180    -0.126535111116E+03    0.21068E-02   -0.16621E-03 18038   0.188E-01    0.949E-01
RMM: 181    -0.126546988321E+03   -0.11877E-01   -0.80063E-03 17386   0.503E-01    0.999E-01
RMM: 182    -0.126539487440E+03    0.75009E-02   -0.28059E-02 19673   0.923E-01    0.776E-01
RMM: 183    -0.126543303824E+03   -0.38164E-02   -0.39239E-03 18461   0.281E-01    0.780E-01
RMM: 184    -0.126543535760E+03   -0.23194E-03   -0.65255E-04 19236   0.963E-02    0.790E-01
RMM: 185    -0.126578163559E+03   -0.34628E-01   -0.77853E-02 17737   0.148E+00    0.109E+00
RMM: 186    -0.126567521650E+03    0.10642E-01   -0.15578E-02 17837   0.818E-01    0.111E+00
RMM: 187    -0.126522635378E+03    0.44886E-01   -0.10557E-01 17375   0.180E+00    0.743E-01
RMM: 188    -0.126513869925E+03    0.87655E-02   -0.35867E-02 18081   0.104E+00    0.818E-01
RMM: 189    -0.126498666161E+03    0.15204E-01   -0.63693E-02 19563   0.119E+00    0.601E-01
RMM: 190    -0.126494915008E+03    0.37512E-02   -0.17422E-02 18681   0.567E-01    0.587E-01
RMM: 191    -0.126501209197E+03   -0.62942E-02   -0.40933E-03 18466   0.384E-01    0.598E-01
RMM: 192    -0.126471411228E+03    0.29798E-01   -0.20732E-01 18133   0.246E+00    0.402E-01
RMM: 193    -0.126471729268E+03   -0.31804E-03   -0.43997E-02 18077   0.103E+00    0.394E-01
RMM: 194    -0.126475756321E+03   -0.40271E-02   -0.75538E-03 20163   0.341E-01    0.392E-01
RMM: 195    -0.126475411548E+03    0.34477E-03   -0.11946E-03 19525   0.105E-01    0.389E-01
RMM: 196    -0.126475668974E+03   -0.25743E-03   -0.34361E-04 18943   0.787E-02    0.390E-01
RMM: 197    -0.126484028832E+03   -0.83599E-02   -0.39179E-02 17968   0.108E+00    0.421E-01
RMM: 198    -0.126480879040E+03    0.31498E-02   -0.38299E-03 17037   0.473E-01    0.460E-01
RMM: 199    -0.126482048375E+03   -0.11693E-02   -0.12844E-03 19988   0.136E-01    0.411E-01
RMM: 200    -0.126481144161E+03    0.90421E-03   -0.42685E-03 17855   0.367E-01
   2 F= -.12648114E+03 E0= -.12648091E+03  d E =-.935475E-01
 trial-energy change:   -0.093548  1 .order   -0.053402   -0.084029   -0.022775
 step:   1.0713(harm=  1.3718)  dis= 0.01281  next Energy=  -126.481971 (dE=-0.944E-01)
 bond charge predicted
       N       E                     dE             d eps       ncg     rms          rms(c)
RMM:   1    -0.126484081729E+03   -0.20334E-02   -0.13762E-02 16440   0.558E-01    0.413E-01
RMM:   2    -0.126488825507E+03   -0.47438E-02   -0.60534E-03 16868   0.531E-01    0.411E-01
RMM:   3    -0.126490169429E+03   -0.13439E-02   -0.32658E-03 19340   0.257E-01    0.428E-01
RMM:   4    -0.126490473772E+03   -0.30434E-03   -0.63524E-04 19326   0.631E-02    0.437E-01
RMM:   5    -0.126486436717E+03    0.40371E-02   -0.40350E-03 18104   0.336E-01    0.492E-01
RMM:   6    -0.126483704071E+03    0.27326E-02   -0.38915E-03 19765   0.287E-01    0.481E-01
RMM:   7    -0.126480309761E+03    0.33943E-02   -0.51960E-03 19440   0.318E-01    0.393E-01
RMM:   8    -0.126473885752E+03    0.64240E-02   -0.17917E-02 19658   0.619E-01    0.270E-01
RMM:   9    -0.126472785150E+03    0.11006E-02   -0.42701E-03 19108   0.261E-01    0.266E-01
RMM:  10    -0.126468746406E+03    0.40387E-02   -0.97540E-03 19479   0.468E-01    0.253E-01
RMM:  11    -0.126470131366E+03   -0.13850E-02   -0.85856E-04 17461   0.205E-01    0.262E-01
RMM:  12    -0.126465000093E+03    0.51313E-02   -0.18635E-02 18042   0.693E-01    0.255E-01
RMM:  13    -0.126466753420E+03   -0.17533E-02   -0.17456E-03 16684   0.330E-01    0.252E-01
RMM:  14    -0.126463199947E+03    0.35535E-02   -0.11301E-02 19244   0.499E-01    0.253E-01
RMM:  15    -0.126459185830E+03    0.40141E-02   -0.45148E-02 19272   0.101E+00    0.258E-01
RMM:  16    -0.126460896660E+03   -0.17108E-02   -0.54768E-03 18275   0.367E-01    0.242E-01
RMM:  17    -0.126460247075E+03    0.64958E-03   -0.13857E-03 17768   0.219E-01    0.241E-01
RMM:  18    -0.126460001513E+03    0.24556E-03   -0.79175E-03 18786   0.463E-01    0.243E-01
RMM:  19    -0.126461140545E+03   -0.11390E-02   -0.16432E-03 17091   0.295E-01    0.230E-01
RMM:  20    -0.126460245484E+03    0.89506E-03   -0.44463E-04 17484   0.142E-01    0.239E-01
RMM:  21    -0.126462619241E+03   -0.23738E-02   -0.45468E-03 18213   0.350E-01    0.225E-01
RMM:  22    -0.126463705140E+03   -0.10859E-02   -0.26684E-03 18414   0.241E-01    0.224E-01
RMM:  23    -0.126463911438E+03   -0.20630E-03   -0.42228E-04 18697   0.107E-01    0.224E-01
RMM:  24    -0.126467539352E+03   -0.36279E-02   -0.36724E-02 18053   0.999E-01    0.260E-01
RMM:  25    -0.126467837742E+03   -0.29839E-03   -0.56475E-03 17645   0.388E-01    0.266E-01
RMM:  26    -0.126463886210E+03    0.39515E-02   -0.66583E-03 18663   0.444E-01    0.283E-01
RMM:  27    -0.126460015990E+03    0.38702E-02   -0.91469E-03 20029   0.470E-01    0.295E-01
RMM:  28    -0.126458106741E+03    0.19092E-02   -0.44562E-03 19589   0.279E-01    0.307E-01
RMM:  29    -0.126458686094E+03   -0.57935E-03   -0.40598E-04 18478   0.973E-02    0.303E-01
RMM:  30    -0.126460607245E+03   -0.19212E-02   -0.14534E-03 17879   0.222E-01    0.282E-01
RMM:  31    -0.126464876876E+03   -0.42696E-02   -0.10786E-02 20232   0.534E-01    0.263E-01
RMM:  32    -0.126471526370E+03   -0.66495E-02   -0.23304E-02 18897   0.784E-01    0.278E-01
RMM:  33    -0.126468300578E+03    0.32258E-02   -0.42914E-03 17191   0.482E-01    0.276E-01
RMM:  34    -0.126479281308E+03   -0.10981E-01   -0.36851E-02 18338   0.104E+00    0.284E-01
RMM:  35    -0.126486055956E+03   -0.67746E-02   -0.30086E-02 18770   0.805E-01    0.314E-01
RMM:  36    -0.126485729411E+03    0.32654E-03   -0.33162E-03 19341   0.231E-01    0.332E-01
RMM:  37    -0.126484330790E+03    0.13986E-02   -0.48639E-04 18055   0.126E-01    0.327E-01
RMM:  38    -0.126488155429E+03   -0.38246E-02   -0.31799E-03 17876   0.313E-01    0.340E-01
RMM:  39    -0.126494942147E+03   -0.67867E-02   -0.14941E-02 19605   0.637E-01    0.345E-01
RMM:  40    -0.126482073563E+03    0.12869E-01   -0.35853E-02 18219   0.112E+00    0.307E-01
RMM:  41    -0.126482067502E+03    0.60612E-05   -0.55497E-03 17801   0.387E-01    0.296E-01
RMM:  42    -0.126475950022E+03    0.61175E-02   -0.20010E-02 19557   0.705E-01    0.268E-01
RMM:  43    -0.126472161841E+03    0.37882E-02   -0.12537E-02 18833   0.532E-01    0.258E-01
RMM:  44    -0.126473161669E+03   -0.99983E-03   -0.11172E-03 18014   0.180E-01    0.243E-01
RMM:  45    -0.126466643621E+03    0.65180E-02   -0.51306E-02 18176   0.116E+00    0.216E-01
RMM:  46    -0.126472405676E+03   -0.57621E-02   -0.16748E-02 18252   0.923E-01    0.204E-01
RMM:  47    -0.126485133536E+03   -0.12728E-01   -0.81688E-02 18628   0.153E+00    0.288E-01
RMM:  48    -0.126484915736E+03    0.21780E-03   -0.91183E-03 17923   0.542E-01    0.313E-01
RMM:  49    -0.126481411921E+03    0.35038E-02   -0.74907E-03 18155   0.499E-01    0.264E-01
RMM:  50    -0.126493388311E+03   -0.11976E-01   -0.78031E-02 17590   0.162E+00    0.298E-01
RMM:  51    -0.126496391768E+03   -0.30035E-02   -0.16718E-02 17765   0.678E-01    0.309E-01
RMM:  52    -0.126489332964E+03    0.70588E-02   -0.12878E-02 17004   0.698E-01    0.302E-01
RMM:  53    -0.126470925119E+03    0.18408E-01   -0.28096E-01 19002   0.279E+00    0.228E-01
RMM:  54    -0.126472574062E+03   -0.16489E-02   -0.52145E-02 18519   0.970E-01    0.208E-01
RMM:  55    -0.126472558564E+03    0.15497E-04   -0.13910E-02 20139   0.445E-01    0.188E-01
RMM:  56    -0.126473253422E+03   -0.69486E-03   -0.42461E-03 19448   0.281E-01    0.199E-01
RMM:  57    -0.126474633719E+03   -0.13803E-02   -0.54982E-03 18363   0.442E-01    0.208E-01
RMM:  58    -0.126474723300E+03   -0.89581E-04   -0.79372E-04 17427   0.134E-01    0.210E-01
RMM:  59    -0.126474062162E+03    0.66114E-03   -0.35876E-03 19163   0.296E-01    0.206E-01
RMM:  60    -0.126475131944E+03   -0.10698E-02   -0.74593E-03 19689   0.416E-01    0.206E-01
RMM:  61    -0.126475209857E+03   -0.77913E-04   -0.82646E-04 18338   0.107E-01    0.206E-01
RMM:  62    -0.126474041715E+03    0.11681E-02   -0.17121E-03 19030   0.223E-01    0.196E-01
RMM:  63    -0.126474164775E+03   -0.12306E-03   -0.23741E-04 17423   0.706E-02    0.192E-01
RMM:  64    -0.126474294068E+03   -0.12929E-03   -0.58038E-05 17177   0.315E-02    0.192E-01
RMM:  65    -0.126473937587E+03    0.35648E-03   -0.16957E-03 17636   0.215E-01    0.187E-01
RMM:  66    -0.126473811968E+03    0.12562E-03   -0.33690E-04 16564   0.135E-01    0.190E-01
RMM:  67    -0.126480261674E+03   -0.64497E-02   -0.88656E-02 17712   0.162E+00    0.227E-01
RMM:  68    -0.126481652443E+03   -0.13908E-02   -0.13428E-02 17442   0.634E-01    0.245E-01
RMM:  69    -0.126482198540E+03   -0.54610E-03   -0.30322E-03 20873   0.159E-01    0.245E-01
RMM:  70    -0.126482840827E+03   -0.64229E-03   -0.11060E-03 18831   0.149E-01    0.249E-01
RMM:  71    -0.126481639064E+03    0.12018E-02   -0.68726E-04 18811   0.171E-01    0.249E-01
RMM:  72    -0.126484996735E+03   -0.33577E-02   -0.69775E-03 18106   0.480E-01    0.219E-01
RMM:  73    -0.126483478125E+03    0.15186E-02   -0.38729E-03 17725   0.361E-01    0.236E-01
RMM:  74    -0.126482171362E+03    0.13068E-02   -0.39494E-03 19123   0.314E-01    0.217E-01
RMM:  75    -0.126481866026E+03    0.30534E-03   -0.79465E-04 18789   0.127E-01    0.217E-01
RMM:  76    -0.126483711716E+03   -0.18457E-02   -0.26864E-03 17358   0.300E-01    0.220E-01
RMM:  77    -0.126477956871E+03    0.57548E-02   -0.18238E-02 17380   0.819E-01    0.221E-01
RMM:  78    -0.126481903939E+03   -0.39471E-02   -0.66198E-03 17300   0.615E-01    0.179E-01
RMM:  79    -0.126485579052E+03   -0.36751E-02   -0.14578E-02 18820   0.643E-01    0.239E-01
RMM:  80    -0.126485300397E+03    0.27866E-03   -0.13410E-03 17954   0.202E-01    0.247E-01
RMM:  81    -0.126487225424E+03   -0.19250E-02   -0.32850E-03 20163   0.253E-01    0.276E-01
RMM:  82    -0.126479161320E+03    0.80641E-02   -0.24398E-02 17455   0.957E-01    0.294E-01
RMM:  83    -0.126479194873E+03   -0.33552E-04   -0.46503E-03 17327   0.410E-01    0.294E-01
RMM:  84    -0.126479045851E+03    0.14902E-03   -0.13075E-03 20710   0.113E-01    0.287E-01
RMM:  85    -0.126479141114E+03   -0.95263E-04   -0.41447E-05 15769   0.224E-02    0.289E-01
RMM:  86    -0.126479058103E+03    0.83011E-04   -0.18559E-04 18035   0.669E-02    0.284E-01
RMM:  87    -0.126477663968E+03    0.13941E-02   -0.39142E-03 18685   0.344E-01    0.217E-01
RMM:  88    -0.126472460181E+03    0.52038E-02   -0.19264E-02 19747   0.715E-01    0.177E-01
RMM:  89    -0.126471831567E+03    0.62861E-03   -0.62827E-03 18739   0.391E-01    0.193E-01
RMM:  90    -0.126472331816E+03   -0.50025E-03   -0.10085E-03 18931   0.118E-01    0.185E-01
RMM:  91    -0.126473093818E+03   -0.76200E-03   -0.33571E-03 17993   0.337E-01    0.181E-01
RMM:  92    -0.126487782831E+03   -0.14689E-01   -0.16153E-01 18507   0.222E+00    0.417E-01
RMM:  93    -0.126487440404E+03    0.34243E-03   -0.23755E-02 17821   0.876E-01    0.387E-01
RMM:  94    -0.126487639158E+03   -0.19875E-03   -0.56542E-03 20032   0.270E-01    0.352E-01
RMM:  95    -0.126490370728E+03   -0.27316E-02   -0.10406E-02 17688   0.570E-01    0.361E-01
RMM:  96    -0.126488029205E+03    0.23415E-02   -0.63280E-03 18685   0.488E-01    0.410E-01
RMM:  97    -0.126488058010E+03   -0.28805E-04   -0.57378E-03 18833   0.402E-01    0.392E-01
RMM:  98    -0.126486341673E+03    0.17163E-02   -0.96038E-03 19894   0.464E-01    0.358E-01
RMM:  99    -0.126488370950E+03   -0.20293E-02   -0.27818E-02 19157   0.790E-01    0.335E-01
RMM: 100    -0.126486501761E+03    0.18692E-02   -0.49084E-03 17210   0.487E-01    0.341E-01
RMM: 101    -0.126486593414E+03   -0.91653E-04   -0.85395E-04 18210   0.139E-01    0.354E-01
RMM: 102    -0.126483205810E+03    0.33876E-02   -0.19080E-02 18291   0.747E-01    0.379E-01
RMM: 103    -0.126485130053E+03   -0.19242E-02   -0.33976E-02 18798   0.105E+00    0.363E-01
RMM: 104    -0.126489900833E+03   -0.47708E-02   -0.18371E-02 18849   0.645E-01    0.421E-01
RMM: 105    -0.126490107258E+03   -0.20642E-03   -0.25586E-03 19036   0.227E-01    0.417E-01
RMM: 106    -0.126493369076E+03   -0.32618E-02   -0.94584E-03 19108   0.458E-01    0.395E-01
RMM: 107    -0.126480229311E+03    0.13140E-01   -0.63136E-02 17595   0.145E+00    0.210E-01
RMM: 108    -0.126478591946E+03    0.16374E-02   -0.21218E-02 17896   0.755E-01    0.198E-01
RMM: 109    -0.126477098693E+03    0.14933E-02   -0.12710E-02 20264   0.479E-01    0.192E-01
RMM: 110    -0.126476454817E+03    0.64388E-03   -0.44407E-03 18990   0.284E-01    0.186E-01
RMM: 111    -0.126478018484E+03   -0.15637E-02   -0.99102E-04 18598   0.187E-01    0.179E-01
RMM: 112    -0.126479021705E+03   -0.10032E-02   -0.72725E-03 18763   0.446E-01    0.207E-01
RMM: 113    -0.126479339391E+03   -0.31769E-03   -0.10572E-03 17944   0.154E-01    0.210E-01
RMM: 114    -0.126478816885E+03    0.52251E-03   -0.81673E-03 18616   0.482E-01    0.196E-01
RMM: 115    -0.126478956589E+03   -0.13970E-03   -0.12271E-03 17588   0.165E-01    0.199E-01
RMM: 116    -0.126480119845E+03   -0.11633E-02   -0.26974E-03 19939   0.266E-01    0.187E-01
RMM: 117    -0.126483506756E+03   -0.33869E-02   -0.58966E-02 17846   0.135E+00    0.243E-01
RMM: 118    -0.126485793423E+03   -0.22867E-02   -0.16700E-02 17960   0.675E-01    0.404E-01
RMM: 119    -0.126486803580E+03   -0.10102E-02   -0.52145E-03 20240   0.288E-01    0.399E-01
RMM: 120    -0.126487113949E+03   -0.31037E-03   -0.15742E-02 18037   0.691E-01    0.447E-01
RMM: 121    -0.126488409690E+03   -0.12957E-02   -0.81084E-03 18235   0.432E-01    0.486E-01
RMM: 122    -0.126488872766E+03   -0.46308E-03   -0.15258E-02 19607   0.574E-01    0.474E-01
RMM: 123    -0.126489443307E+03   -0.57054E-03   -0.64546E-03 18030   0.500E-01    0.466E-01
RMM: 124    -0.126491232372E+03   -0.17891E-02   -0.95037E-03 19426   0.478E-01    0.456E-01
RMM: 125    -0.126495341193E+03   -0.41088E-02   -0.35139E-02 19502   0.890E-01    0.417E-01
RMM: 126    -0.126496645468E+03   -0.13043E-02   -0.69244E-03 18687   0.318E-01    0.433E-01
RMM: 127    -0.126497718021E+03   -0.10726E-02   -0.83614E-02 18568   0.148E+00    0.274E-01
RMM: 128    -0.126496742141E+03    0.97588E-03   -0.93289E-03 18024   0.543E-01    0.245E-01
RMM: 129    -0.126495396287E+03    0.13459E-02   -0.26034E-03 17788   0.292E-01    0.241E-01
RMM: 130    -0.126493170455E+03    0.22258E-02   -0.42145E-03 19614   0.325E-01    0.243E-01
RMM: 131    -0.126493666437E+03   -0.49598E-03   -0.23869E-04 16560   0.830E-02    0.239E-01
RMM: 132    -0.126475311968E+03    0.18354E-01   -0.37846E-01 17768   0.323E+00    0.269E-01
RMM: 133    -0.126482388743E+03   -0.70768E-02   -0.51786E-02 17687   0.127E+00    0.237E-01
RMM: 134    -0.126485277902E+03   -0.28892E-02   -0.12890E-02 20846   0.385E-01    0.251E-01
RMM: 135    -0.126485199597E+03    0.78305E-04   -0.28756E-02 17605   0.906E-01    0.251E-01
RMM: 136    -0.126485098708E+03    0.10089E-03   -0.59920E-03 17273   0.560E-01    0.339E-01
RMM: 137    -0.126485425714E+03   -0.32701E-03   -0.12071E-01 17754   0.182E+00    0.313E-01
RMM: 138    -0.126488444745E+03   -0.30190E-02   -0.47551E-02 18340   0.102E+00    0.326E-01
RMM: 139    -0.126486471353E+03    0.19734E-02   -0.10396E-02 17590   0.603E-01    0.328E-01
RMM: 140    -0.126485637263E+03    0.83409E-03   -0.45459E-03 18048   0.345E-01    0.318E-01
RMM: 141    -0.126486255239E+03   -0.61798E-03   -0.32625E-04 17324   0.112E-01    0.305E-01
RMM: 142    -0.126483417632E+03    0.28376E-02   -0.31070E-01 17838   0.290E+00    0.239E-01
RMM: 143    -0.126487787340E+03   -0.43697E-02   -0.34683E-02 17656   0.109E+00    0.275E-01
RMM: 144    -0.126487486248E+03    0.30109E-03   -0.39380E-03 18666   0.338E-01    0.292E-01
RMM: 145    -0.126486260969E+03    0.12253E-02   -0.26274E-02 17913   0.855E-01    0.311E-01
RMM: 146    -0.126487657956E+03   -0.13970E-02   -0.61044E-03 17058   0.575E-01    0.304E-01
RMM: 147    -0.126482758866E+03    0.48991E-02   -0.10388E-01 17768   0.171E+00    0.372E-01
RMM: 148    -0.126480907659E+03    0.18512E-02   -0.51500E-02 18550   0.146E+00    0.312E-01
RMM: 149    -0.126481672757E+03   -0.76510E-03   -0.51611E-03 18567   0.311E-01    0.288E-01
RMM: 150    -0.126480334690E+03    0.13381E-02   -0.15078E-02 17659   0.687E-01    0.297E-01
RMM: 151    -0.126480257950E+03    0.76741E-04   -0.79859E-02 20463   0.137E+00    0.337E-01
RMM: 152    -0.126488849900E+03   -0.85920E-02   -0.10139E-01 19097   0.143E+00    0.341E-01
RMM: 153    -0.126485962497E+03    0.28874E-02   -0.13691E-02 16911   0.865E-01    0.315E-01
RMM: 154    -0.126484116220E+03    0.18463E-02   -0.35604E-03 18143   0.357E-01    0.404E-01
RMM: 155    -0.126485191285E+03   -0.10751E-02   -0.47414E-03 18154   0.399E-01    0.368E-01
RMM: 156    -0.126483741206E+03    0.14501E-02   -0.94291E-03 17932   0.592E-01    0.381E-01
RMM: 157    -0.126488715221E+03   -0.49740E-02   -0.47113E-02 18600   0.120E+00    0.352E-01
RMM: 158    -0.126487344185E+03    0.13710E-02   -0.86408E-03 17261   0.654E-01    0.445E-01
RMM: 159    -0.126487216666E+03    0.12752E-03   -0.26832E-03 18699   0.291E-01    0.421E-01
RMM: 160    -0.126488820159E+03   -0.16035E-02   -0.96808E-04 18197   0.185E-01    0.428E-01
RMM: 161    -0.126488271178E+03    0.54898E-03   -0.38307E-04 18171   0.115E-01    0.431E-01
RMM: 162    -0.126496420391E+03   -0.81492E-02   -0.51723E-02 17849   0.118E+00    0.478E-01
RMM: 163    -0.126498828990E+03   -0.24086E-02   -0.12564E-02 17919   0.534E-01    0.477E-01
RMM: 164    -0.126500652547E+03   -0.18236E-02   -0.76301E-03 20852   0.334E-01    0.477E-01
RMM: 165    -0.126499776989E+03    0.87556E-03   -0.29280E-04 17483   0.894E-02    0.470E-01
RMM: 166    -0.126495765025E+03    0.40120E-02   -0.11521E-02 18216   0.575E-01    0.357E-01
RMM: 167    -0.126494775050E+03    0.98997E-03   -0.44635E-02 20395   0.103E+00    0.433E-01
RMM: 168    -0.126497103132E+03   -0.23281E-02   -0.55587E-03 19140   0.332E-01    0.475E-01
RMM: 169    -0.126502193199E+03   -0.50901E-02   -0.11910E-02 18736   0.530E-01    0.515E-01
RMM: 170    -0.126505094092E+03   -0.29009E-02   -0.14535E-02 19193   0.641E-01    0.452E-01
RMM: 171    -0.126496890942E+03    0.82031E-02   -0.33382E-02 17912   0.108E+00    0.514E-01
RMM: 172    -0.126482828623E+03    0.14062E-01   -0.55921E-01 19477   0.362E+00    0.455E-01
RMM: 173    -0.126488896212E+03   -0.60676E-02   -0.56055E-02 18676   0.865E-01    0.453E-01
RMM: 174    -0.126487286368E+03    0.16098E-02   -0.81799E-03 18024   0.553E-01    0.430E-01
RMM: 175    -0.126490811187E+03   -0.35248E-02   -0.35509E-02 17776   0.107E+00    0.402E-01
RMM: 176    -0.126498286072E+03   -0.74749E-02   -0.15755E-01 20029   0.184E+00    0.307E-01
RMM: 177    -0.126503737874E+03   -0.54518E-02   -0.50830E-02 19538   0.818E-01    0.320E-01
RMM: 178    -0.126502569729E+03    0.11681E-02   -0.35358E-03 19035   0.257E-01    0.322E-01
RMM: 179    -0.126515317647E+03   -0.12748E-01   -0.57927E-02 18003   0.122E+00    0.359E-01
RMM: 180    -0.126521440149E+03   -0.61225E-02   -0.24905E-02 18125   0.751E-01    0.379E-01
RMM: 181    -0.126531987521E+03   -0.10547E-01   -0.35706E-02 20075   0.897E-01    0.499E-01
RMM: 182    -0.126522721181E+03    0.92663E-02   -0.98116E-03 17767   0.658E-01    0.425E-01
RMM: 183    -0.126517653177E+03    0.50680E-02   -0.10027E-02 18081   0.509E-01    0.382E-01
RMM: 184    -0.126524060341E+03   -0.64072E-02   -0.43192E-03 17833   0.422E-01    0.411E-01
RMM: 185    -0.126522650603E+03    0.14097E-02   -0.30165E-04 16056   0.135E-01    0.411E-01
RMM: 186    -0.126522751609E+03   -0.10101E-03   -0.95578E-04 18872   0.157E-01    0.411E-01
RMM: 187    -0.126504029639E+03    0.18722E-01   -0.69385E-02 17711   0.144E+00    0.341E-01
RMM: 188    -0.126504867658E+03   -0.83802E-03   -0.10628E-02 17421   0.567E-01    0.317E-01
RMM: 189    -0.126503575054E+03    0.12926E-02   -0.71767E-03 20933   0.330E-01    0.309E-01
RMM: 190    -0.126503720924E+03   -0.14587E-03   -0.61160E-04 19010   0.606E-02    0.307E-01
RMM: 191    -0.126511260477E+03   -0.75396E-02   -0.15807E-02 17558   0.723E-01    0.325E-01
RMM: 192    -0.126540110881E+03   -0.28850E-01   -0.19147E-01 20195   0.223E+00    0.522E-01
RMM: 193    -0.126540331029E+03   -0.22015E-03   -0.17093E-02 19277   0.381E-01    0.520E-01
RMM: 194    -0.126541725877E+03   -0.13948E-02   -0.22254E-03 20105   0.140E-01    0.531E-01
RMM: 195    -0.126539220383E+03    0.25055E-02   -0.73669E-04 17570   0.163E-01    0.502E-01
RMM: 196    -0.126538040819E+03    0.11796E-02   -0.32764E-04 17300   0.101E-01    0.500E-01
RMM: 197    -0.126546117196E+03   -0.80764E-02   -0.11408E-02 17539   0.627E-01    0.526E-01
RMM: 198    -0.126547597913E+03   -0.14807E-02   -0.26182E-03 17112   0.342E-01    0.573E-01
RMM: 199    -0.126539590526E+03    0.80074E-02   -0.52691E-03 17054   0.452E-01    0.556E-01
RMM: 200    -0.126539665744E+03   -0.75217E-04   -0.67838E-04 16632   0.174E-01
   3 F= -.12653967E+03 E0= -.12653999E+03  d E =-.152069E+00
 curvature:  -0.24 expect dE=-0.647E-02 dE for cont linesearch -0.139E-02
 ZBRENT: increasing intervall
 opt :   1.2140  next Energy=  -126.542742 (dE=-0.155E+00)
 bond charge predicted
       N       E                     dE             d eps       ncg     rms          rms(c)
RMM:   1    -0.126537196980E+03    0.23935E-02   -0.57156E-02 15578   0.107E+00    0.561E-01
RMM:   2    -0.126547159893E+03   -0.99629E-02   -0.10882E-02 15869   0.907E-01    0.501E-01
RMM:   3    -0.126553100595E+03   -0.59407E-02   -0.11531E-02 18858   0.568E-01    0.599E-01
RMM:   4    -0.126557456468E+03   -0.43559E-02   -0.53617E-03 19493   0.328E-01    0.589E-01
RMM:   5    -0.126549845858E+03    0.76106E-02   -0.31864E-03 17176   0.364E-01    0.599E-01
RMM:   6    -0.126559560075E+03   -0.97142E-02   -0.64317E-03 18395   0.494E-01    0.625E-01
RMM:   7    -0.126518419222E+03    0.41141E-01   -0.15003E-01 17713   0.228E+00    0.599E-01
RMM:   8    -0.126514191853E+03    0.42274E-02   -0.39446E-02 17996   0.103E+00    0.615E-01
RMM:   9    -0.126478787600E+03    0.35404E-01   -0.35385E-01 18574   0.317E+00    0.613E-01
RMM:  10    -0.126482244733E+03   -0.34571E-02   -0.50029E-02 18089   0.116E+00    0.756E-01
RMM:  11    -0.126485247959E+03   -0.30032E-02   -0.76201E-02 19854   0.133E+00    0.491E-01
RMM:  12    -0.126489362539E+03   -0.41146E-02   -0.83774E-03 17669   0.529E-01    0.507E-01
RMM:  13    -0.126490849321E+03   -0.14868E-02   -0.31327E-03 17963   0.316E-01    0.494E-01
RMM:  14    -0.126476446021E+03    0.14403E-01   -0.21716E-01 17592   0.265E+00    0.605E-01
RMM:  15    -0.126483568858E+03   -0.71228E-02   -0.35751E-02 16553   0.156E+00    0.590E-01
RMM:  16    -0.126517348099E+03   -0.33779E-01   -0.11929E+00 17623   0.608E+00    0.375E-01
RMM:  17    -0.126552761615E+03   -0.35414E-01   -0.33113E-01 17906   0.307E+00    0.453E-01
RMM:  18    -0.126575914339E+03   -0.23153E-01   -0.15147E-01 20603   0.151E+00    0.733E-01
RMM:  19    -0.126582443609E+03   -0.65293E-02   -0.18521E-02 19516   0.456E-01    0.798E-01
RMM:  20    -0.126590421369E+03   -0.79778E-02   -0.87197E-03 19511   0.461E-01    0.870E-01
RMM:  21    -0.126582947787E+03    0.74736E-02   -0.28191E-03 17685   0.347E-01    0.833E-01
RMM:  22    -0.126579139731E+03    0.38081E-02   -0.22325E-03 18428   0.249E-01    0.844E-01
RMM:  23    -0.126532192989E+03    0.46947E-01   -0.19960E-01 17916   0.247E+00    0.596E-01
RMM:  24    -0.126525471382E+03    0.67216E-02   -0.61609E-02 17897   0.132E+00    0.597E-01
RMM:  25    -0.126536742903E+03   -0.11272E-01   -0.83028E-03 19362   0.520E-01    0.584E-01
RMM:  26    -0.126537196027E+03   -0.45312E-03   -0.12081E-03 18774   0.115E-01    0.595E-01
RMM:  27    -0.126539491909E+03   -0.22959E-02   -0.86501E-04 18650   0.153E-01    0.617E-01
RMM:  28    -0.126534211981E+03    0.52799E-02   -0.71460E-03 18185   0.463E-01    0.568E-01
RMM:  29    -0.126540718926E+03   -0.65069E-02   -0.65312E-03 18847   0.489E-01    0.601E-01
RMM:  30    -0.126540636656E+03    0.82269E-04   -0.93279E-04 18606   0.124E-01    0.611E-01
RMM:  31    -0.126540454624E+03    0.18203E-03   -0.98750E-05 17309   0.311E-02    0.610E-01
RMM:  32    -0.126541154265E+03   -0.69964E-03   -0.67004E-05 17253   0.453E-02    0.612E-01
RMM:  33    -0.126546106738E+03   -0.49525E-02   -0.32161E-03 18696   0.325E-01    0.655E-01
RMM:  34    -0.126526654427E+03    0.19452E-01   -0.45849E-02 17411   0.129E+00    0.496E-01
RMM:  35    -0.126520939874E+03    0.57146E-02   -0.20115E-02 18672   0.744E-01    0.453E-01
RMM:  36    -0.126519728009E+03    0.12119E-02   -0.64887E-03 20304   0.298E-01    0.404E-01
RMM:  37    -0.126526396222E+03   -0.66682E-02   -0.81467E-03 17338   0.548E-01    0.406E-01
RMM:  38    -0.126524312246E+03    0.20840E-02   -0.10501E-03 16443   0.267E-01    0.415E-01
RMM:  39    -0.126516866156E+03    0.74461E-02   -0.11798E-02 17418   0.655E-01    0.361E-01
RMM:  40    -0.126513985852E+03    0.28803E-02   -0.50632E-03 18132   0.399E-01    0.367E-01
RMM:  41    -0.126512809867E+03    0.11760E-02   -0.26020E-03 20085   0.220E-01    0.344E-01
RMM:  42    -0.126513629947E+03   -0.82008E-03   -0.22357E-04 17432   0.868E-02    0.348E-01
RMM:  43    -0.126513423609E+03    0.20634E-03   -0.45204E-05 15751   0.374E-02    0.350E-01
RMM:  44    -0.126512470109E+03    0.95350E-03   -0.50904E-04 17998   0.125E-01    0.349E-01
RMM:  45    -0.126509754696E+03    0.27154E-02   -0.63736E-03 19980   0.416E-01    0.379E-01
RMM:  46    -0.126506579021E+03    0.31757E-02   -0.54056E-03 19000   0.356E-01    0.380E-01
RMM:  47    -0.126512661915E+03   -0.60829E-02   -0.83532E-03 18258   0.578E-01    0.379E-01
RMM:  48    -0.126511512953E+03    0.11490E-02   -0.68741E-04 16288   0.192E-01    0.389E-01
RMM:  49    -0.126511480319E+03    0.32634E-04   -0.91165E-05 16978   0.448E-02    0.382E-01
RMM:  50    -0.126513400003E+03   -0.19197E-02   -0.11903E-03 18016   0.189E-01    0.368E-01
RMM:  51    -0.126516003612E+03   -0.26036E-02   -0.39356E-03 20561   0.325E-01    0.359E-01
RMM:  52    -0.126510237586E+03    0.57660E-02   -0.90964E-03 17675   0.591E-01    0.366E-01
RMM:  53    -0.126505876588E+03    0.43610E-02   -0.73152E-03 18945   0.491E-01    0.367E-01
RMM:  54    -0.126505468174E+03    0.40841E-03   -0.18856E-03 19846   0.161E-01    0.350E-01
RMM:  55    -0.126501070277E+03    0.43979E-02   -0.75278E-03 18324   0.465E-01    0.338E-01
RMM:  56    -0.126502154370E+03   -0.10841E-02   -0.67146E-04 17104   0.183E-01    0.322E-01
RMM:  57    -0.126484449867E+03    0.17705E-01   -0.93357E-02 17768   0.175E+00    0.349E-01
RMM:  58    -0.126492878547E+03   -0.84287E-02   -0.16139E-02 16599   0.105E+00    0.254E-01
RMM:  59    -0.126493161214E+03   -0.28267E-03   -0.23546E-03 19339   0.289E-01    0.327E-01
RMM:  60    -0.126494978116E+03   -0.18169E-02   -0.16423E-03 18594   0.217E-01    0.319E-01
RMM:  61    -0.126494935192E+03    0.42923E-04   -0.16145E-04 16820   0.687E-02    0.321E-01
RMM:  62    -0.126492595680E+03    0.23395E-02   -0.68164E-03 17565   0.444E-01    0.321E-01
RMM:  63    -0.126497639440E+03   -0.50438E-02   -0.10255E-02 18777   0.641E-01    0.314E-01
RMM:  64    -0.126502468593E+03   -0.48292E-02   -0.12031E-02 19832   0.547E-01    0.322E-01
RMM:  65    -0.126505778767E+03   -0.33102E-02   -0.65191E-03 18831   0.391E-01    0.297E-01
RMM:  66    -0.126509899296E+03   -0.41205E-02   -0.76938E-03 19480   0.458E-01    0.321E-01
RMM:  67    -0.126501418577E+03    0.84807E-02   -0.14267E-02 17727   0.766E-01    0.318E-01
RMM:  68    -0.126503331621E+03   -0.19130E-02   -0.23166E-03 16749   0.351E-01    0.299E-01
RMM:  69    -0.126513190345E+03   -0.98587E-02   -0.27737E-02 17817   0.973E-01    0.335E-01
RMM:  70    -0.126515365765E+03   -0.21754E-02   -0.65119E-03 17833   0.444E-01    0.340E-01
RMM:  71    -0.126515983041E+03   -0.61728E-03   -0.19099E-03 20301   0.144E-01    0.361E-01
RMM:  72    -0.126563416239E+03   -0.47433E-01   -0.33558E-01 17779   0.331E+00    0.549E-01
RMM:  73    -0.126569084378E+03   -0.56681E-02   -0.51992E-02 17497   0.134E+00    0.624E-01
RMM:  74    -0.126569892492E+03   -0.80811E-03   -0.94200E-03 20446   0.259E-01    0.625E-01
RMM:  75    -0.126570064474E+03   -0.17198E-03   -0.25522E-04 19195   0.402E-02    0.627E-01
RMM:  76    -0.126568390458E+03    0.16740E-02   -0.19840E-04 16973   0.848E-02    0.622E-01
RMM:  77    -0.126565040247E+03    0.33502E-02   -0.18297E-03 19762   0.232E-01    0.624E-01
RMM:  78    -0.126569302567E+03   -0.42623E-02   -0.10780E-03 17547   0.218E-01    0.635E-01
RMM:  79    -0.126565571855E+03    0.37307E-02   -0.10234E-03 19244   0.198E-01    0.618E-01
RMM:  80    -0.126564950394E+03    0.62146E-03   -0.21031E-04 17443   0.578E-02    0.615E-01
RMM:  81    -0.126562815412E+03    0.21350E-02   -0.53707E-04 19195   0.127E-01    0.600E-01
RMM:  82    -0.126564614393E+03   -0.17990E-02   -0.51068E-04 18430   0.128E-01    0.611E-01
RMM:  83    -0.126563878235E+03    0.73616E-03   -0.30391E-04 18517   0.924E-02    0.610E-01
RMM:  84    -0.126566956519E+03   -0.30783E-02   -0.88357E-04 18411   0.164E-01    0.627E-01
RMM:  85    -0.126567517730E+03   -0.56121E-03   -0.19836E-04 17133   0.732E-02    0.629E-01
RMM:  86    -0.126566927142E+03    0.59059E-03   -0.23794E-05 15150   0.298E-02    0.627E-01
RMM:  87    -0.126569433633E+03   -0.25065E-02   -0.75284E-04 17545   0.167E-01    0.656E-01
RMM:  88    -0.126571277929E+03   -0.18443E-02   -0.49492E-04 18288   0.124E-01    0.643E-01
RMM:  89    -0.126575892878E+03   -0.46149E-02   -0.23993E-03 18927   0.243E-01    0.690E-01
RMM:  90    -0.126572138413E+03    0.37545E-02   -0.13476E-03 18571   0.235E-01    0.714E-01
RMM:  91    -0.126571132298E+03    0.10061E-02   -0.39615E-04 18063   0.106E-01    0.721E-01
RMM:  92    -0.126578644052E+03   -0.75118E-02   -0.39105E-03 17356   0.379E-01    0.764E-01
RMM:  93    -0.126576155355E+03    0.24887E-02   -0.47200E-04 16026   0.189E-01    0.785E-01
RMM:  94    -0.126573779073E+03    0.23763E-02   -0.58020E-04 17220   0.149E-01    0.756E-01
RMM:  95    -0.126574988412E+03   -0.12093E-02   -0.75395E-05 15801   0.714E-02    0.754E-01
RMM:  96    -0.126567337133E+03    0.76513E-02   -0.38717E-03 17408   0.358E-01    0.731E-01
RMM:  97    -0.126564534597E+03    0.28025E-02   -0.29273E-03 18635   0.330E-01    0.673E-01
RMM:  98    -0.126559844992E+03    0.46896E-02   -0.48044E-03 19426   0.357E-01    0.620E-01
RMM:  99    -0.126558525995E+03    0.13190E-02   -0.12679E-03 18380   0.177E-01    0.614E-01
RMM: 100    -0.126562152200E+03   -0.36262E-02   -0.17413E-03 18571   0.230E-01    0.610E-01
RMM: 101    -0.126555907727E+03    0.62445E-02   -0.40655E-03 18709   0.381E-01    0.569E-01
RMM: 102    -0.126545955759E+03    0.99520E-02   -0.19895E-02 19664   0.711E-01    0.503E-01
RMM: 103    -0.126548808154E+03   -0.28524E-02   -0.19336E-03 18121   0.230E-01    0.509E-01
RMM: 104    -0.126548103337E+03    0.70482E-03   -0.53993E-04 19307   0.847E-02    0.520E-01
RMM: 105    -0.126542135151E+03    0.59682E-02   -0.47206E-03 18074   0.356E-01    0.515E-01
RMM: 106    -0.126542374058E+03   -0.23891E-03   -0.58572E-04 17126   0.131E-01    0.509E-01
RMM: 107    -0.126545251950E+03   -0.28779E-02   -0.87191E-04 17370   0.173E-01    0.499E-01
RMM: 108    -0.126547420891E+03   -0.21689E-02   -0.89810E-04 19565   0.161E-01    0.501E-01
RMM: 109    -0.126552953515E+03   -0.55326E-02   -0.41408E-03 18570   0.340E-01    0.500E-01
RMM: 110    -0.126576152339E+03   -0.23199E-01   -0.57491E-02 19512   0.130E+00    0.576E-01
RMM: 111    -0.126577558067E+03   -0.14057E-02   -0.75328E-03 18641   0.330E-01    0.593E-01
RMM: 112    -0.126553001341E+03    0.24557E-01   -0.44588E-02 17377   0.123E+00    0.531E-01
RMM: 113    -0.126556427563E+03   -0.34262E-02   -0.50604E-03 16805   0.490E-01    0.517E-01
RMM: 114    -0.126556566204E+03   -0.13864E-03   -0.79838E-04 19810   0.106E-01    0.551E-01
RMM: 115    -0.126555545056E+03    0.10211E-02   -0.70025E-04 18287   0.148E-01    0.506E-01
RMM: 116    -0.126554909087E+03    0.63597E-03   -0.14947E-04 17165   0.692E-02    0.508E-01
RMM: 117    -0.126505028307E+03    0.49881E-01   -0.32956E-01 17696   0.328E+00    0.500E-01
RMM: 118    -0.126510092664E+03   -0.50644E-02   -0.49269E-02 17423   0.129E+00    0.427E-01
RMM: 119    -0.126508442827E+03    0.16498E-02   -0.19280E-02 21122   0.467E-01    0.424E-01
RMM: 120    -0.126513224175E+03   -0.47813E-02   -0.47272E-03 17701   0.431E-01    0.345E-01
RMM: 121    -0.126511807646E+03    0.14165E-02   -0.74563E-04 16542   0.210E-01    0.358E-01
RMM: 122    -0.126511363627E+03    0.44402E-03   -0.70482E-04 17802   0.136E-01    0.344E-01
RMM: 123    -0.126510909474E+03    0.45415E-03   -0.35361E-04 18464   0.964E-02    0.346E-01
RMM: 124    -0.126509419398E+03    0.14901E-02   -0.80701E-04 18053   0.155E-01    0.357E-01
RMM: 125    -0.126513973350E+03   -0.45540E-02   -0.47399E-03 17535   0.429E-01    0.348E-01
RMM: 126    -0.126523800352E+03   -0.98270E-02   -0.37538E-02 19474   0.107E+00    0.346E-01
RMM: 127    -0.126528726892E+03   -0.49265E-02   -0.18418E-02 18858   0.636E-01    0.379E-01
RMM: 128    -0.126527382414E+03    0.13445E-02   -0.18579E-03 18717   0.218E-01    0.418E-01
RMM: 129    -0.126527887233E+03   -0.50482E-03   -0.57883E-04 19252   0.784E-02    0.422E-01
RMM: 130    -0.126528323787E+03   -0.43655E-03   -0.12056E-04 17821   0.454E-02    0.420E-01
RMM: 131    -0.126525390399E+03    0.29334E-02   -0.20450E-03 17417   0.266E-01    0.429E-01
RMM: 132    -0.126537836123E+03   -0.12446E-01   -0.26483E-02 17340   0.968E-01    0.440E-01
RMM: 133    -0.126532816473E+03    0.50197E-02   -0.36919E-03 17080   0.487E-01    0.476E-01
