   24   24   60    1
  0.8903125E+01  0.6045955E-09  0.6045955E-09  0.6749836E-09  0.5000000E-15
   1.0000000000000000E-004
  CAR 
 Name                                    
     96     60     64

  0.3742002E-15  0.3742002E-15  0.3742002E-15  0.1371742E-02
    1       -5.767076   1.000000
    2       -3.805340   1.000000
    3       -2.567821   1.000000
    4       -2.567816   1.000000
    5       -2.567813   1.000000
    6       -1.860792   1.000000
    7       -1.860789   1.000000
    8       -1.860786   1.000000
    9       -1.264599   1.000000
   10       -1.264593   1.000000
   11       -1.264590   1.000000
   12       -0.108548   1.000000
   13        0.303906   1.000000
   14        0.303908   1.000000
   15        0.303912   1.000000
   16        2.560664   1.000000
   17        2.560665   1.000000
   18        2.560666   1.000000
   19        2.725293   1.000000
   20        2.725294   1.000000
   21        2.725296   1.000000
   22        3.128482   1.000000
   23        3.128486   1.000000
   24        3.128488   1.000000
   25        4.014880   1.000000
   26        4.014881   1.000000
   27        4.014883   1.000000
   28        4.080371   1.000000
   29        4.472318   1.000000
   30        4.472322   1.000000
   31        4.658512   1.000000
   32        4.658515   1.000000
   33        4.658517   1.000000
   34        5.063869   1.000000
   35        5.063874   1.000000
   36        5.063875   1.000000
   37        5.265240   1.000000
   38        6.753322   1.000000
   39        6.753325   1.000000
   40        6.906541   1.000000
   41        6.906543   1.000000
   42        7.229637   1.000000
   43        7.229644   1.000000
   44        8.190454   1.000000
   45        8.191117   1.000000
   46        8.191118   1.000000
   47        8.191120   1.000000
   48        9.021593   0.061918
   49        9.021594   0.061914
   50        9.621571  -0.000000
   51        9.621574  -0.000000
   52        9.621580  -0.000000
   53       10.378696  -0.000000
   54       10.378699  -0.000000
   55       10.378708  -0.000000
   56       10.600696  -0.000000
   57       10.600698  -0.000000
   58       10.600799  -0.000000
   59       10.817650  -0.000000
   60       10.817653  -0.000000
   61       10.817656  -0.000000
   62       11.095891  -0.000000
   63       11.095958  -0.000000
   64       11.187650  -0.000000

  0.1111111E+00  0.3890610E-15  0.3742002E-15  0.8230453E-02
    1       -5.706323   1.000000
    2       -3.784439   1.000000
    3       -2.645296   1.000000
    4       -2.554697   1.000000
    5       -2.554692   1.000000
    6       -2.393223   1.000000
    7       -2.009660   1.000000
    8       -2.009658   1.000000
    9       -1.034635   1.000000
   10       -1.034631   1.000000
   11       -0.696085   1.000000
   12       -0.020445   1.000000
   13        0.286663   1.000000
   14        0.286667   1.000000
   15        0.465290   1.000000
   16        2.546630   1.000000
   17        2.546631   1.000000
   18        2.618667   1.000000
   19        2.701161   1.000000
   20        2.786941   1.000000
   21        2.786943   1.000000
   22        3.167161   1.000000
   23        3.178708   1.000000
   24        3.178712   1.000000
   25        3.599079   1.000000
   26        3.599080   1.000000
   27        4.069540   1.000000
   28        4.129860   1.000000
   29        4.319959   1.000000
   30        4.497776   1.000000
   31        4.671709   1.000000
   32        4.967764   1.000000
   33        4.988181   1.000000
   34        4.988185   1.000000
   35        5.059990   1.000000
   36        5.059991   1.000000
   37        5.138652   1.000000
   38        6.038191   1.000000
   39        6.089786   1.000000
   40        6.757618   1.000000
   41        6.986355   1.000000
   42        7.853144   1.000000
   43        7.853146   1.000000
   44        7.866120   1.000000
   45        7.945751   1.000000
   46        8.213766   1.000000
   47        8.226822   1.000000
   48        8.993810   0.213120
   49        9.205324  -0.001268
   50        9.572416  -0.000000
   51        9.615405  -0.000000
   52        9.615411  -0.000000
   53       10.194513  -0.000000
   54       10.194519  -0.000000
   55       10.313155  -0.000000
   56       10.427665  -0.000000
   57       10.640940  -0.000000
   58       10.641278  -0.000000
   59       10.838918  -0.000000
   60       10.870910  -0.000000
   61       10.892970  -0.000000
   62       10.951466  -0.000000
   63       11.002456  -0.000000
   64       11.242156  -0.000000

  0.2222222E+00  0.3665717E-15  0.3742002E-15  0.8230453E-02
    1       -5.525862   1.000000
    2       -3.721503   1.000000
    3       -3.093349   1.000000
    4       -2.834474   1.000000
    5       -2.520628   1.000000
    6       -2.520623   1.000000
    7       -2.224216   1.000000
    8       -2.224214   1.000000
    9       -0.583334   1.000000
   10       -0.583331   1.000000
   11        0.110988   1.000000
   12        0.237826   1.000000
   13        0.241748   1.000000
   14        0.241751   1.000000
   15        0.903949   1.000000
   16        2.512133   1.000000
   17        2.512134   1.000000
   18        2.576745   1.000000
   19        2.792344   1.000000
   20        2.957036   1.000000
   21        2.957037   1.000000
   22        2.964736   1.000000
   23        2.964738   1.000000
   24        3.283109   1.000000
   25        3.319156   1.000000
   26        3.319161   1.000000
   27        3.889896   1.000000
   28        4.218265   1.000000
   29        4.273337   1.000000
   30        4.565172   1.000000
   31        4.704739   1.000000
   32        4.776220   1.000000
   33        4.776224   1.000000
   34        4.791843   1.000000
   35        4.826816   1.000000
   36        5.087071   1.000000
   37        5.306944   1.000000
   38        5.674976   1.000000
   39        5.674976   1.000000
   40        6.370932   1.000000
   41        7.200805   1.000000
   42        7.200807   1.000000
   43        7.222391   1.000000
   44        8.279801   1.000000
   45        8.334097   1.000000
   46        8.597521   1.000002
   47        8.877797   0.988937
   48        8.914900   0.825961
   49        9.431438  -0.000000
   50        9.590285  -0.000000
   51        9.590291  -0.000000
   52        9.619507  -0.000000
   53        9.619508  -0.000000
   54        9.675030  -0.000000
   55        9.971265  -0.000000
   56       10.147920  -0.000000
   57       10.257439  -0.000000
   58       10.273725  -0.000000
   59       10.502833  -0.000000
   60       10.755841  -0.000000
   61       10.755848  -0.000000
   62       10.914613  -0.000000
   63       10.914647  -0.000000
   64       11.006908  -0.000000

  0.3333333E+00  0.3893064E-15  0.3742002E-15  0.8230453E-02
    1       -5.230815   1.000000
    2       -3.747453   1.000000
    3       -3.616065   1.000000
    4       -3.062087   1.000000
    5       -2.480317   1.000000
    6       -2.480312   1.000000
    7       -2.381400   1.000000
    8       -2.381399   1.000000
    9       -0.060528   1.000000
   10       -0.060525   1.000000
   11        0.188319   1.000000
   12        0.188322   1.000000
   13        0.646923   1.000000
   14        0.939660   1.000000
   15        1.539732   1.000000
   16        2.251750   1.000000
   17        2.304097   1.000000
   18        2.304099   1.000000
   19        2.474574   1.000000
   20        2.474575   1.000000
   21        3.080473   1.000000
   22        3.234533   1.000000
   23        3.234535   1.000000
   24        3.276971   1.000000
   25        3.475258   1.000000
   26        3.511123   1.000000
   27        3.511127   1.000000
   28        4.120869   1.000000
   29        4.410595   1.000000
   30        4.444941   1.000000
   31        4.447077   1.000000
   32        4.469628   1.000000
   33        4.469631   1.000000
   34        4.600856   1.000000
   35        4.649982   1.000000
   36        4.739227   1.000000
   37        4.762507   1.000000
   38        5.871751   1.000000
   39        6.331796   1.000000
   40        6.331796   1.000000
   41        6.592395   1.000000
   42        6.592398   1.000000
   43        7.604129   1.000000
   44        8.383082   1.000000
   45        8.505030   1.000000
   46        8.796991   1.022893
   47        8.845920   1.033291
   48        8.845921   1.033290
   49        9.220600  -0.000628
   50        9.249065  -0.000147
   51        9.361481  -0.000000
   52        9.549672  -0.000000
   53        9.549677  -0.000000
   54        9.665372  -0.000000
   55        9.671224  -0.000000
   56        9.805611  -0.000000
   57        9.962478  -0.000000
   58       10.115801  -0.000000
   59       10.268661  -0.000000
   60       10.891158  -0.000000
   61       10.895224  -0.000000
   62       10.905612  -0.000000
   63       10.953419  -0.000000
   64       11.142477  -0.000000

  0.4444444E+00  0.4013521E-15  0.3742002E-15  0.8230453E-02
    1       -4.829108   1.000000
    2       -4.330761   1.000000
    3       -3.468284   1.000000
    4       -3.280741   1.000000
    5       -2.461930   1.000000
    6       -2.461928   1.000000
    7       -2.453001   1.000000
    8       -2.452996   1.000000
    9        0.152046   1.000000
   10        0.152048   1.000000
   11        0.408320   1.000000
   12        0.408322   1.000000
   13        1.169676   1.000000
   14        1.740736   1.000000
   15        1.760244   1.000000
   16        1.768371   1.000000
   17        1.768372   1.000000
   18        2.313110   1.000000
   19        2.450997   1.000000
   20        2.450998   1.000000
   21        2.549836   1.000000
   22        3.184566   1.000000
   23        3.480631   1.000000
   24        3.528236   1.000000
   25        3.528238   1.000000
   26        3.665973   1.000000
   27        3.665978   1.000000
   28        3.740253   1.000000
   29        3.989246   1.000000
   30        4.069741   1.000000
   31        4.152975   1.000000
   32        4.152978   1.000000
   33        4.557473   1.000000
   34        4.570408   1.000000
   35        4.719913   1.000000
   36        4.750364   1.000000
   37        4.976806   1.000000
   38        5.375956   1.000000
   39        6.215189   1.000000
   40        6.215192   1.000000
   41        6.970988   1.000000
   42        6.970989   1.000000
   43        8.111649   1.000000
   44        8.111650   1.000000
   45        8.112287   1.000000
   46        8.513471   1.000000
   47        8.657099   1.000092
   48        8.715043   1.001621
   49        8.725369   1.002491
   50        8.973627   0.364388
   51        9.299052  -0.000008
   52        9.301134  -0.000007
   53        9.518541  -0.000000
   54        9.518546  -0.000000
   55        9.838538  -0.000000
   56        9.851440  -0.000000
   57        9.891401  -0.000000
   58       10.396983  -0.000000
   59       10.673756  -0.000000
   60       10.810522  -0.000000
   61       10.887313  -0.000000
   62       10.887835  -0.000000
   63       11.013085  -0.000000
   64       11.121585  -0.000000

  0.1111111E+00  0.1111111E+00  0.3742002E-15  0.8230453E-02
    1       -5.585713   1.000000
    2       -3.742498   1.000000
    3       -2.704389   1.000000
    4       -2.704387   1.000000
    5       -2.702083   1.000000
    6       -2.702080   1.000000
    7       -2.431358   1.000000
    8       -1.656854   1.000000
    9       -1.181064   1.000000
   10       -0.270802   1.000000
   11       -0.270801   1.000000
   12        0.071415   1.000000
   13        0.152871   1.000000
   14        0.600026   1.000000
   15        0.600030   1.000000
   16        2.460672   1.000000
   17        2.658852   1.000000
   18        2.658853   1.000000
   19        2.727432   1.000000
   20        2.727434   1.000000
   21        2.901352   1.000000
   22        2.982456   1.000000
   23        3.250269   1.000000
   24        3.250271   1.000000
   25        3.293287   1.000000
   26        3.697060   1.000000
   27        3.697061   1.000000
   28        4.038318   1.000000
   29        4.216158   1.000000
   30        4.544765   1.000000
   31        4.822773   1.000000
   32        4.822775   1.000000
   33        4.879802   1.000000
   34        4.922136   1.000000
   35        5.092894   1.000000
   36        5.092896   1.000000
   37        5.366295   1.000000
   38        5.487130   1.000000
   39        5.659946   1.000000
   40        6.490363   1.000000
   41        7.140634   1.000000
   42        7.144335   1.000000
   43        7.924018   1.000000
   44        7.924019   1.000000
   45        8.299248   1.000000
   46        8.427949   1.000000
   47        8.610138   1.000005
   48        8.929578   0.725395
   49        9.510912  -0.000000
   50        9.510914  -0.000000
   51        9.541033  -0.000000
   52        9.648493  -0.000000
   53        9.874983  -0.000000
   54        9.904388  -0.000000
   55        9.904389  -0.000000
   56       10.317810  -0.000000
   57       10.317812  -0.000000
   58       10.476582  -0.000000
   59       10.594063  -0.000000
   60       10.773052  -0.000000
   61       10.774260  -0.000000
   62       10.855703  -0.000000
   63       11.320494  -0.000000
   64       11.321083  -0.000000

  0.2222222E+00  0.1111111E+00  0.3742002E-15  0.1646091E-01
    1       -5.347894   1.000000
    2       -3.658113   1.000000
    3       -3.386759   1.000000
    4       -2.929168   1.000000
    5       -2.923539   1.000000
    6       -2.731665   1.000000
    7       -2.289779   1.000000
    8       -1.662258   1.000000
    9       -0.818439   1.000000
   10       -0.154335   1.000000
   11        0.209140   1.000000
   12        0.487652   1.000000
   13        0.546541   1.000000
   14        0.692858   1.000000
   15        1.148443   1.000000
   16        2.169728   1.000000
   17        2.383674   1.000000
   18        2.511285   1.000000
   19        2.665823   1.000000
   20        2.847808   1.000000
   21        2.882257   1.000000
   22        3.119191   1.000000
   23        3.270155   1.000000
   24        3.393592   1.000000
   25        3.398695   1.000000
   26        3.498745   1.000000
   27        3.538095   1.000000
   28        3.871154   1.000000
   29        4.322783   1.000000
   30        4.486106   1.000000
   31        4.585972   1.000000
   32        4.589622   1.000000
   33        4.652290   1.000000
   34        4.659718   1.000000
   35        4.693884   1.000000
   36        4.809162   1.000000
   37        5.133386   1.000000
   38        5.697248   1.000000
   39        6.050166   1.000000
   40        6.317753   1.000000
   41        6.413419   1.000000
   42        7.372942   1.000000
   43        7.452902   1.000000
   44        8.056062   1.000000
   45        8.441656   1.000000
   46        8.801089   1.024789
   47        9.054767  -0.022215
   48        9.148125  -0.010652
   49        9.309927  -0.000004
   50        9.331333  -0.000001
   51        9.422644  -0.000000
   52        9.461025  -0.000000
   53        9.480872  -0.000000
   54        9.661817  -0.000000
   55        9.788115  -0.000000
   56        9.889459  -0.000000
   57       10.099071  -0.000000
   58       10.208969  -0.000000
   59       10.317447  -0.000000
   60       10.443946  -0.000000
   61       10.628219  -0.000000
   62       10.870348  -0.000000
   63       11.254409  -0.000000
   64       11.430859  -0.000000

  0.3333333E+00  0.1111111E+00  0.3742002E-15  0.1646091E-01
    1       -4.999321   1.000000
    2       -4.007169   1.000000
    3       -3.530800   1.000000
    4       -3.154357   1.000000
    5       -3.064427   1.000000
    6       -2.743753   1.000000
    7       -2.165434   1.000000
    8       -1.754630   1.000000
    9       -0.338950   1.000000
   10       -0.256725   1.000000
   11        0.681511   1.000000
   12        0.747355   1.000000
   13        0.957577   1.000000
   14        1.362284   1.000000
   15        1.468152   1.000000
   16        1.856855   1.000000
   17        2.075725   1.000000
   18        2.332158   1.000000
   19        2.578350   1.000000
   20        2.655715   1.000000
   21        2.889880   1.000000
   22        3.009386   1.000000
   23        3.214637   1.000000
   24        3.551993   1.000000
   25        3.566116   1.000000
   26        3.607691   1.000000
   27        3.620052   1.000000
   28        3.741301   1.000000
   29        4.076587   1.000000
   30        4.187908   1.000000
   31        4.223287   1.000000
   32        4.344647   1.000000
   33        4.346336   1.000000
   34        4.354830   1.000000
   35        4.789808   1.000000
   36        4.839460   1.000000
   37        5.129752   1.000000
   38        5.555363   1.000000
   39        5.834245   1.000000
   40        6.274331   1.000000
   41        6.920651   1.000000
   42        7.029711   1.000000
   43        7.895096   1.000000
   44        8.231985   1.000000
   45        8.417046   1.000000
   46        8.608966   1.000005
   47        8.627532   1.000016
   48        8.645790   1.000048
   49        8.979078   0.320977
   50        9.150925  -0.009789
   51        9.244661  -0.000187
   52        9.342266  -0.000000
   53        9.370247  -0.000000
   54        9.637169  -0.000000
   55        9.657247  -0.000000
   56        9.982475  -0.000000
   57       10.141137  -0.000000
   58       10.330598  -0.000000
   59       10.366591  -0.000000
   60       10.493721  -0.000000
   61       10.715577  -0.000000
   62       10.718923  -0.000000
   63       10.948649  -0.000000
   64       11.398550  -0.000000

  0.4444444E+00  0.1111111E+00  0.3742002E-15  0.8230453E-02
    1       -4.548854   1.000000
    2       -4.548849   1.000000
    3       -3.361356   1.000000
    4       -3.361351   1.000000
    5       -3.109528   1.000000
    6       -2.746690   1.000000
    7       -2.113240   1.000000
    8       -1.789679   1.000000
    9       -0.413137   1.000000
   10        0.117112   1.000000
   11        0.765373   1.000000
   12        0.930554   1.000000
   13        1.050741   1.000000
   14        1.514841   1.000000
   15        1.514845   1.000000
   16        2.151999   1.000000
   17        2.152003   1.000000
   18        2.305399   1.000000
   19        2.314248   1.000000
   20        2.649258   1.000000
   21        2.675547   1.000000
   22        2.675551   1.000000
   23        3.095359   1.000000
   24        3.620457   1.000000
   25        3.652126   1.000000
   26        3.652131   1.000000
   27        3.869288   1.000000
   28        3.888260   1.000000
   29        3.888263   1.000000
   30        3.971038   1.000000
   31        4.019952   1.000000
   32        4.230496   1.000000
   33        4.252725   1.000000
   34        4.252729   1.000000
   35        5.028780   1.000000
   36        5.028783   1.000000
   37        5.105871   1.000000
   38        5.105873   1.000000
   39        5.591039   1.000000
   40        6.588557   1.000000
   41        6.746177   1.000000
   42        7.674919   1.000000
   43        7.945296   1.000000
   44        8.042551   1.000000
   45        8.430226   1.000000
   46        8.430231   1.000000
   47        8.437469   1.000000
   48        8.437472   1.000000
   49        8.901750   0.899372
   50        8.901754   0.899349
   51        9.096018  -0.032254
   52        9.096021  -0.032253
   53        9.310589  -0.000004
   54        9.652335  -0.000000
   55        9.964762  -0.000000
   56        9.964764  -0.000000
   57       10.182910  -0.000000
   58       10.182911  -0.000000
   59       10.392742  -0.000000
   60       10.452439  -0.000000
   61       11.132815  -0.000000
   62       11.132957  -0.000000
   63       11.222203  -0.000000
   64       11.222547  -0.000000

  0.2222222E+00  0.2222222E+00  0.3742002E-15  0.8230453E-02
    1       -5.056399   1.000000
    2       -3.582763   1.000000
    3       -3.582762   1.000000
    4       -3.551341   1.000000
    5       -2.976944   1.000000
    6       -2.976942   1.000000
    7       -2.023267   1.000000
    8       -1.079833   1.000000
    9       -0.928272   1.000000
   10       -0.550792   1.000000
   11        0.886137   1.000000
   12        0.997731   1.000000
   13        0.997733   1.000000
   14        1.327438   1.000000
   15        1.327442   1.000000
   16        1.377196   1.000000
   17        2.292612   1.000000
   18        2.507801   1.000000
   19        2.507802   1.000000
   20        2.920018   1.000000
   21        2.920019   1.000000
   22        3.042470   1.000000
   23        3.370929   1.000000
   24        3.370931   1.000000
   25        3.536118   1.000000
   26        3.536121   1.000000
   27        3.609038   1.000000
   28        3.723867   1.000000
   29        3.780484   1.000000
   30        4.221072   1.000000
   31        4.236484   1.000000
   32        4.284885   1.000000
   33        4.482532   1.000000
   34        4.568857   1.000000
   35        4.568859   1.000000
   36        4.881945   1.000000
   37        5.617589   1.000000
   38        5.658627   1.000000
   39        5.658629   1.000000
   40        5.690949   1.000000
   41        7.015767   1.000000
   42        7.633445   1.000000
   43        7.633447   1.000000
   44        7.820462   1.000000
   45        8.574164   1.000000
   46        8.624003   1.000013
   47        8.785975   1.017945
   48        8.785977   1.017946
   49        8.979797   0.315363
   50        9.156696  -0.008169
   51        9.156698  -0.008169
   52        9.405728  -0.000000
   53        9.585567  -0.000000
   54        9.705733  -0.000000
   55        9.759419  -0.000000
   56        9.759419  -0.000000
   57       10.018272  -0.000000
   58       10.176407  -0.000000
   59       10.190402  -0.000000
   60       10.628825  -0.000000
   61       10.628825  -0.000000
   62       10.728402  -0.000000
   63       11.065016  -0.000000
   64       11.065017  -0.000000

  0.3333333E+00  0.2222222E+00  0.3742002E-15  0.1646091E-01
    1       -4.658570   1.000000
    2       -4.163677   1.000000
    3       -3.680789   1.000000
    4       -3.400457   1.000000
    5       -3.206703   1.000000
    6       -3.001607   1.000000
    7       -1.786516   1.000000
    8       -1.073605   1.000000
    9       -0.859355   1.000000
   10       -0.378911   1.000000
   11        0.657917   1.000000
   12        1.351254   1.000000
   13        1.401708   1.000000
   14        1.425516   1.000000
   15        1.748746   1.000000
   16        1.977008   1.000000
   17        2.078011   1.000000
   18        2.246185   1.000000
   19        2.437527   1.000000
   20        2.524927   1.000000
   21        2.895015   1.000000
   22        2.925665   1.000000
   23        2.989643   1.000000
   24        3.271305   1.000000
   25        3.640509   1.000000
   26        3.677964   1.000000
   27        3.713775   1.000000
   28        3.734092   1.000000
   29        3.935414   1.000000
   30        3.984387   1.000000
   31        3.988893   1.000000
   32        4.093052   1.000000
   33        4.252405   1.000000
   34        4.479826   1.000000
   35        4.790113   1.000000
   36        5.149869   1.000000
   37        5.169230   1.000000
   38        5.194066   1.000000
   39        5.485652   1.000000
   40        6.024256   1.000000
   41        7.350150   1.000000
   42        7.744902   1.000000
   43        7.947883   1.000000
   44        8.275555   1.000000
   45        8.289404   1.000000
   46        8.317201   1.000000
   47        8.447559   1.000000
   48        8.713866   1.001541
   49        8.775908   1.013877
   50        8.882774   0.974889
   51        8.956748   0.505229
   52        9.060388  -0.027985
   53        9.246841  -0.000166
   54        9.721489  -0.000000
   55        9.775330  -0.000000
   56        9.883761  -0.000000
   57       10.069399  -0.000000
   58       10.094968  -0.000000
   59       10.311210  -0.000000
   60       10.583283  -0.000000
   61       10.726581  -0.000000
   62       10.957634  -0.000000
   63       10.975537  -0.000000
   64       11.410888  -0.000000

  0.3333333E+00  0.3333333E+00  0.3742002E-15  0.2743484E-02
    1       -4.215951   1.000000
    2       -4.215946   1.000000
    3       -4.215942   1.000000
    4       -3.223623   1.000000
    5       -3.223618   1.000000
    6       -3.223615   1.000000
    7       -1.347763   1.000000
    8       -1.347759   1.000000
    9       -0.499270   1.000000
   10       -0.499266   1.000000
   11        0.118781   1.000000
   12        1.930648   1.000000
   13        1.930652   1.000000
   14        1.930655   1.000000
   15        1.945637   1.000000
   16        1.945640   1.000000
   17        1.945643   1.000000
   18        2.160729   1.000000
   19        2.160734   1.000000
   20        2.160737   1.000000
   21        2.217578   1.000000
   22        3.281358   1.000000
   23        3.281362   1.000000
   24        3.281364   1.000000
   25        3.492608   1.000000
   26        3.492611   1.000000
   27        3.492614   1.000000
   28        3.787302   1.000000
   29        3.787304   1.000000
   30        3.787306   1.000000
   31        4.135131   1.000000
   32        4.135133   1.000000
   33        4.564835   1.000000
   34        4.564838   1.000000
   35        4.786482   1.000000
   36        4.786484   1.000000
   37        4.786486   1.000000
   38        5.617940   1.000000
   39        5.617941   1.000000
   40        5.617943   1.000000
   41        7.823666   1.000000
   42        7.823669   1.000000
   43        7.823671   1.000000
   44        8.273614   1.000000
   45        8.273616   1.000000
   46        8.549578   1.000000
   47        8.549582   1.000000
   48        8.549584   1.000000
   49        8.706503   1.001114
   50        8.706504   1.001114
   51        8.706505   1.001114
   52        9.252982  -0.000119
   53        9.252983  -0.000119
   54        9.252985  -0.000119
   55        9.494216  -0.000000
   56        9.741082  -0.000000
   57       10.370206  -0.000000
   58       10.370207  -0.000000
   59       10.370208  -0.000000
   60       10.544500  -0.000000
   61       10.544503  -0.000000
   62       10.544505  -0.000000
   63       11.604044  -0.000000
   64       11.604047  -0.000000

  0.3742002E-15  0.3742002E-15  0.1111111E+00  0.2743484E-02
    1       -5.725485   1.000000
    2       -3.902597   1.000000
    3       -2.537458   1.000000
    4       -2.537452   1.000000
    5       -2.537450   1.000000
    6       -1.816068   1.000000
    7       -1.816066   1.000000
    8       -1.816062   1.000000
    9       -1.318606   1.000000
   10       -1.318600   1.000000
   11       -1.318597   1.000000
   12        0.026243   1.000000
   13        0.185279   1.000000
   14        0.185281   1.000000
   15        0.185285   1.000000
   16        2.601934   1.000000
   17        2.601935   1.000000
   18        2.601937   1.000000
   19        2.840344   1.000000
   20        2.840345   1.000000
   21        2.840346   1.000000
   22        3.199680   1.000000
   23        3.199684   1.000000
   24        3.199686   1.000000
   25        3.845633   1.000000
   26        4.017820   1.000000
   27        4.017821   1.000000
   28        4.017823   1.000000
   29        4.506106   1.000000
   30        4.506109   1.000000
   31        4.542795   1.000000
   32        4.542797   1.000000
   33        4.542799   1.000000
   34        5.011994   1.000000
   35        5.011999   1.000000
   36        5.012001   1.000000
   37        5.460862   1.000000
   38        6.528457   1.000000
   39        6.528460   1.000000
   40        6.798972   1.000000
   41        6.798975   1.000000
   42        7.646668   1.000000
   43        7.646673   1.000000
   44        8.109970   1.000000
   45        8.358721   1.000000
   46        8.358723   1.000000
   47        8.358724   1.000000
   48        8.903145   0.892394
   49        8.903146   0.892387
   50        9.520419  -0.000000
   51        9.520422  -0.000000
   52        9.520427  -0.000000
   53       10.376458  -0.000000
   54       10.376488  -0.000000
   55       10.376489  -0.000000
   56       10.385117  -0.000000
   57       10.385120  -0.000000
   58       10.385121  -0.000000
   59       10.593711  -0.000000
   60       10.593714  -0.000000
   61       10.593717  -0.000000
   62       11.099696  -0.000000
   63       11.099700  -0.000000
   64       11.515359  -0.000000

  0.1111111E+00  0.3890610E-15  0.1111111E+00  0.1646091E-01
    1       -5.665199   1.000000
    2       -3.878155   1.000000
    3       -2.622885   1.000000
    4       -2.526653   1.000000
    5       -2.526647   1.000000
    6       -2.374069   1.000000
    7       -1.984415   1.000000
    8       -1.984413   1.000000
    9       -1.068823   1.000000
   10       -1.068819   1.000000
   11       -0.723526   1.000000
   12        0.110059   1.000000
   13        0.183047   1.000000
   14        0.183050   1.000000
   15        0.349430   1.000000
   16        2.567193   1.000000
   17        2.567194   1.000000
   18        2.659491   1.000000
   19        2.821577   1.000000
   20        2.903680   1.000000
   21        2.903682   1.000000
   22        3.233047   1.000000
   23        3.245399   1.000000
   24        3.245403   1.000000
   25        3.590712   1.000000
   26        3.590713   1.000000
   27        3.883382   1.000000
   28        4.072282   1.000000
   29        4.349791   1.000000
   30        4.529175   1.000000
   31        4.560589   1.000000
   32        4.920909   1.000000
   33        4.934014   1.000000
   34        4.934015   1.000000
   35        4.941300   1.000000
   36        4.941304   1.000000
   37        5.343053   1.000000
   38        5.935331   1.000000
   39        6.021997   1.000000
   40        6.760269   1.000000
   41        6.939933   1.000000
   42        8.005904   1.000000
   43        8.032424   1.000000
   44        8.032426   1.000000