   49   49   85    1
  0.2411350E+02  0.8645320E-09  0.6085000E-09  0.2593596E-08  0.5000000E-15
   1.0000000000000000E-004
  CAR 
 Name                                    
    189    149    120

  0.3742002E-15  0.3742002E-15  0.3742002E-15  0.3367003E-02
    1      -14.095626   1.000000
    2      -12.738445   1.000000
    3      -12.602892   1.000000
    4      -12.080096   1.000000
    5      -11.658256   1.000000
    6      -11.299110   1.000000
    7      -11.282022   1.000000
    8      -11.246633   1.000000
    9      -11.136624   1.000000
   10      -10.837189   1.000000
   11      -10.819828   1.000000
   12      -10.418153   1.000000
   13      -10.302325   1.000000
   14      -10.259303   1.000000
   15       -9.891111   1.000000
   16       -9.860123   1.000000
   17       -9.089268   1.000000
   18       -9.057649   1.000000
   19       -9.015777   1.000000
   20       -8.711845   1.000000
   21       -8.647595   1.000000
   22       -8.590521   1.000000
   23       -8.325233   1.000000
   24       -8.246849   1.000000
   25       -8.141794   1.000000
   26       -8.116809   1.000000
   27       -7.475605   1.000000
   28       -7.339330   1.000000
   29       -6.954569   1.000000
   30       -6.686718   1.000000
   31       -6.636490   1.000000
   32       -6.308234   1.000000
   33       -6.164915   1.000000
   34       -6.107968   1.000000
   35       -5.834171   1.000000
   36       -5.752811   1.000000
   37       -5.669967   1.000000
   38       -5.637518   1.000000
   39       -5.421182   1.000000
   40       -5.322875   1.000000
   41       -5.292792   1.000000
   42       -5.250229   1.000000
   43       -5.213487   1.000000
   44       -5.031761   1.000000
   45       -5.007545   1.000000
   46       -4.900020   1.000000
   47       -4.858323   1.000000
   48       -4.761167   1.000000
   49       -4.722471   1.000000
   50       -4.697871   1.000000
   51       -4.637958   1.000000
   52       -4.571486   1.000000
   53       -4.522797   1.000000
   54       -4.453840   1.000000
   55       -4.323907   1.000000
   56       -4.229046   1.000000
   57       -4.199578   1.000000
   58       -4.153333   1.000000
   59       -4.059626   1.000000
   60       -3.905589   1.000000
   61       -3.712976   1.000000
   62       -3.612811   1.000000
   63       -3.590538   1.000000
   64       -3.553985   1.000000
   65       -3.530029   1.000000
   66       -3.501972   1.000000
   67       -3.399624   1.000000
   68       -3.378888   1.000000
   69       -3.280330   1.000000
   70       -3.251364   1.000000
   71       -3.138681   1.000000
   72       -2.895800   1.000000
   73       -2.872330   1.000000
   74       -2.643772   1.000000
   75       -2.542159   1.000000
   76       -2.473388   1.000000
   77       -2.415610   1.000000
   78       -2.320206   1.000000
   79       -2.237118   1.000000
   80       -2.116776   1.000000
   81       -1.900348   1.000000
   82       -1.709124   1.000000
   83       -1.408137   1.000000
   84       -1.373125   1.000000
   85       -1.280118   1.000000
   86       -1.180389   1.000000
   87       -1.097328   1.000000
   88       -1.057314   1.000000
   89       -0.854431   1.000000
   90       -0.514129   1.000000
   91       -0.371038   1.000105
   92       -0.185662   1.033743
   93       -0.103866   0.747418
   94       -0.043465   0.261215
   95        0.048409  -0.035442
   96        0.092713  -0.020419
   97        0.112679  -0.012321
   98        0.431062  -0.000000
   99        0.439455  -0.000000
  100        0.491229  -0.000000
  101        0.537893  -0.000000
  102        0.659968  -0.000000
  103        0.664290  -0.000000
  104        0.693246  -0.000000
  105        0.775891  -0.000000
  106        1.114323  -0.000000
  107        1.123832  -0.000000
  108        1.171171  -0.000000
  109        1.196239  -0.000000
  110        1.286813  -0.000000
  111        1.293300  -0.000000
  112        1.338226  -0.000000
  113        1.392552  -0.000000
  114        1.495535  -0.000000
  115        1.528435  -0.000000
  116        1.597623  -0.000000
  117        1.613569  -0.000000
  118        1.745504  -0.000000
  119        1.763345  -0.000000
  120        1.813176  -0.000000

  0.1111111E+00  0.3729374E-15  0.3860503E-15  0.6734007E-02
    1      -14.068682   1.000000
    2      -12.740581   1.000000
    3      -12.691576   1.000000
    4      -12.023461   1.000000
    5      -11.643934   1.000000
    6      -11.301780   1.000000
    7      -11.272778   1.000000
    8      -11.234473   1.000000
    9      -11.166718   1.000000
   10      -10.833006   1.000000
   11      -10.815080   1.000000
   12      -10.433216   1.000000
   13      -10.304357   1.000000
   14      -10.254786   1.000000
   15       -9.878675   1.000000
   16       -9.849329   1.000000
   17       -9.080399   1.000000
   18       -9.051414   1.000000
   19       -9.014161   1.000000
   20       -8.734369   1.000000
   21       -8.657051   1.000000
   22       -8.582378   1.000000
   23       -8.382333   1.000000
   24       -8.243485   1.000000
   25       -8.154798   1.000000
   26       -8.139571   1.000000
   27       -7.558410   1.000000
   28       -7.350356   1.000000
   29       -6.894135   1.000000
   30       -6.656869   1.000000
   31       -6.608550   1.000000
   32       -6.290421   1.000000
   33       -6.140524   1.000000
   34       -6.086964   1.000000
   35       -5.825243   1.000000
   36       -5.766549   1.000000
   37       -5.643839   1.000000
   38       -5.570247   1.000000
   39       -5.510638   1.000000
   40       -5.390002   1.000000
   41       -5.285231   1.000000
   42       -5.206524   1.000000
   43       -5.178091   1.000000
   44       -5.003937   1.000000
   45       -4.928865   1.000000
   46       -4.903334   1.000000
   47       -4.881581   1.000000
   48       -4.759135   1.000000
   49       -4.706947   1.000000
   50       -4.674932   1.000000
   51       -4.613304   1.000000
   52       -4.556613   1.000000
   53       -4.511330   1.000000
   54       -4.454390   1.000000
   55       -4.320406   1.000000
   56       -4.256962   1.000000
   57       -4.211737   1.000000
   58       -4.150868   1.000000
   59       -4.048661   1.000000
   60       -3.907233   1.000000
   61       -3.710345   1.000000
   62       -3.628965   1.000000
   63       -3.598530   1.000000
   64       -3.551201   1.000000
   65       -3.518986   1.000000
   66       -3.498471   1.000000
   67       -3.406332   1.000000
   68       -3.370344   1.000000
   69       -3.310250   1.000000
   70       -3.240960   1.000000
   71       -3.183716   1.000000
   72       -2.935609   1.000000
   73       -2.854595   1.000000
   74       -2.637582   1.000000
   75       -2.549213   1.000000
   76       -2.521421   1.000000
   77       -2.389111   1.000000
   78       -2.376407   1.000000
   79       -2.268839   1.000000
   80       -2.137873   1.000000
   81       -1.798035   1.000000
   82       -1.751733   1.000000
   83       -1.431703   1.000000
   84       -1.404098   1.000000
   85       -1.250552   1.000000
   86       -1.163366   1.000000
   87       -1.084102   1.000000
   88       -0.962649   1.000000
   89       -0.889395   1.000000
   90       -0.579605   1.000000
   91       -0.419362   1.000006
   92       -0.164878   1.014405
   93       -0.066418   0.443846
   94       -0.034352   0.197979
   95        0.043278  -0.034830
   96        0.077410  -0.027437
   97        0.109320  -0.013530
   98        0.418151  -0.000000
   99        0.447999  -0.000000
  100        0.479502  -0.000000
  101        0.572547  -0.000000
  102        0.668834  -0.000000
  103        0.691512  -0.000000
  104        0.716782  -0.000000
  105        0.806792  -0.000000
  106        1.114453  -0.000000
  107        1.123525  -0.000000
  108        1.152924  -0.000000
  109        1.224419  -0.000000
  110        1.285390  -0.000000
  111        1.315531  -0.000000
  112        1.366785  -0.000000
  113        1.416260  -0.000000
  114        1.519972  -0.000000
  115        1.539286  -0.000000
  116        1.579957  -0.000000
  117        1.602495  -0.000000
  118        1.748009  -0.000000
  119        1.765721  -0.000000
  120        1.812908  -0.000000

  0.2222222E+00  0.3922785E-15  0.3630220E-15  0.6734007E-02
    1      -13.988630   1.000000
    2      -12.959359   1.000000
    3      -12.636630   1.000000
    4      -11.977987   1.000000
    5      -11.604938   1.000000
    6      -11.322106   1.000000
    7      -11.255471   1.000000
    8      -11.227927   1.000000
    9      -11.161494   1.000000
   10      -10.820926   1.000000
   11      -10.801098   1.000000
   12      -10.500951   1.000000
   13      -10.309152   1.000000
   14      -10.248160   1.000000
   15       -9.836927   1.000000
   16       -9.813065   1.000000
   17       -9.098122   1.000000
   18       -9.031440   1.000000
   19       -8.957229   1.000000
   20       -8.792680   1.000000
   21       -8.704657   1.000000
   22       -8.583049   1.000000
   23       -8.499522   1.000000
   24       -8.298407   1.000000
   25       -8.226912   1.000000
   26       -8.055609   1.000000
   27       -7.765055   1.000000
   28       -7.319616   1.000000
   29       -6.793511   1.000000
   30       -6.598510   1.000000
   31       -6.557308   1.000000
   32       -6.343529   1.000000
   33       -6.067874   1.000000
   34       -6.011732   1.000000
   35       -5.878327   1.000000
   36       -5.733189   1.000000
   37       -5.685320   1.000000
   38       -5.481585   1.000000
   39       -5.423845   1.000000
   40       -5.367297   1.000000
   41       -5.247048   1.000000
   42       -5.170706   1.000000
   43       -5.106416   1.000000
   44       -5.088221   1.000000
   45       -4.964605   1.000000
   46       -4.857399   1.000000
   47       -4.793694   1.000000
   48       -4.724128   1.000000
   49       -4.686387   1.000000
   50       -4.623117   1.000000
   51       -4.566354   1.000000
   52       -4.520086   1.000000
   53       -4.485203   1.000000
   54       -4.425618   1.000000
   55       -4.321440   1.000000
   56       -4.278388   1.000000
   57       -4.247728   1.000000
   58       -4.126322   1.000000
   59       -4.034714   1.000000
   60       -3.928103   1.000000
   61       -3.732698   1.000000
   62       -3.672722   1.000000
   63       -3.619318   1.000000
   64       -3.555824   1.000000
   65       -3.525720   1.000000
   66       -3.481036   1.000000
   67       -3.457292   1.000000
   68       -3.362257   1.000000
   69       -3.331052   1.000000
   70       -3.263753   1.000000
   71       -3.142466   1.000000
   72       -3.051378   1.000000
   73       -2.776176   1.000000
   74       -2.698732   1.000000
   75       -2.613869   1.000000
   76       -2.565523   1.000000
   77       -2.500683   1.000000
   78       -2.365463   1.000000
   79       -2.355443   1.000000
   80       -2.111877   1.000000
   81       -1.886618   1.000000
   82       -1.580953   1.000000
   83       -1.495945   1.000000
   84       -1.465518   1.000000
   85       -1.198184   1.000000
   86       -1.145366   1.000000
   87       -1.018074   1.000000
   88       -0.948067   1.000000
   89       -0.734211   1.000000
   90       -0.696227   1.000000
   91       -0.536156   1.000000
   92       -0.252610   1.014609
   93       -0.036833   0.214519
   94       -0.003348   0.041099
   95        0.026816  -0.025009
   96        0.094079  -0.019806
   97        0.273349  -0.000006
   98        0.381299  -0.000000
   99        0.407605  -0.000000
  100        0.431632  -0.000000
  101        0.612598  -0.000000
  102        0.730616  -0.000000
  103        0.762263  -0.000000
  104        0.773792  -0.000000
  105        0.873229  -0.000000
  106        1.067073  -0.000000
  107        1.165382  -0.000000
  108        1.174183  -0.000000
  109        1.265114  -0.000000
  110        1.312637  -0.000000
  111        1.323989  -0.000000
  112        1.418214  -0.000000
  113        1.463139  -0.000000
  114        1.523895  -0.000000
  115        1.541909  -0.000000
  116        1.588012  -0.000000
  117        1.648871  -0.000000
  118        1.745967  -0.000000
  119        1.757208  -0.000000
  120        1.793473  -0.000000

  0.3333333E+00  0.3713828E-15  0.3468587E-15  0.6734007E-02
    1      -13.857899   1.000000
    2      -13.216968   1.000000
    3      -12.524403   1.000000
    4      -12.043399   1.000000
    5      -11.553088   1.000000
    6      -11.346403   1.000000
    7      -11.239469   1.000000
    8      -11.228798   1.000000
    9      -11.072359   1.000000
   10      -10.804176   1.000000
   11      -10.781450   1.000000
   12      -10.628373   1.000000
   13      -10.315903   1.000000
   14      -10.251262   1.000000
   15       -9.761172   1.000000
   16       -9.750623   1.000000
   17       -9.170376   1.000000
   18       -9.022318   1.000000
   19       -8.883398   1.000000
   20       -8.816938   1.000000
   21       -8.766264   1.000000
   22       -8.599250   1.000000
   23       -8.577347   1.000000
   24       -8.387909   1.000000
   25       -8.318382   1.000000
   26       -8.032906   1.000000
   27       -7.845334   1.000000
   28       -7.222686   1.000000
   29       -6.798256   1.000000
   30       -6.558222   1.000000
   31       -6.537669   1.000000
   32       -6.434485   1.000000
   33       -6.166507   1.000000
   34       -5.934788   1.000000
   35       -5.812131   1.000000
   36       -5.609739   1.000000
   37       -5.574512   1.000000
   38       -5.396323   1.000000
   39       -5.372005   1.000000
   40       -5.295371   1.000000
   41       -5.253113   1.000000
   42       -5.180135   1.000000
   43       -5.125916   1.000000
   44       -5.034868   1.000000
   45       -4.932381   1.000000
   46       -4.815824   1.000000
   47       -4.782865   1.000000
   48       -4.732196   1.000000
   49       -4.636962   1.000000
   50       -4.615722   1.000000
   51       -4.512739   1.000000
   52       -4.471151   1.000000
   53       -4.411917   1.000000
   54       -4.375007   1.000000
   55       -4.338770   1.000000
   56       -4.276598   1.000000
   57       -4.221375   1.000000
   58       -4.080473   1.000000
   59       -4.059168   1.000000
   60       -3.936365   1.000000
   61       -3.817721   1.000000
   62       -3.755273   1.000000
   63       -3.646591   1.000000
   64       -3.615239   1.000000
   65       -3.563018   1.000000
   66       -3.510857   1.000000
   67       -3.436850   1.000000
   68       -3.371640   1.000000
   69       -3.333314   1.000000
   70       -3.211607   1.000000
   71       -3.096144   1.000000
   72       -3.022839   1.000000
   73       -2.893665   1.000000
   74       -2.713322   1.000000
   75       -2.706074   1.000000
   76       -2.603443   1.000000
   77       -2.585573   1.000000
   78       -2.449356   1.000000
   79       -2.390464   1.000000
   80       -2.056143   1.000000
   81       -1.966814   1.000000
   82       -1.647553   1.000000
   83       -1.573145   1.000000
   84       -1.298784   1.000000
   85       -1.263077   1.000000
   86       -1.011585   1.000000
   87       -0.966285   1.000000
   88       -0.909043   1.000000
   89       -0.846519   1.000000
   90       -0.653962   1.000000
   91       -0.453328   1.000001
   92       -0.398879   1.000021
   93       -0.033764   0.194139
   94       -0.009896   0.066249
   95        0.032964  -0.030309
   96        0.196408  -0.000464
   97        0.251259  -0.000022
   98        0.307610  -0.000001
   99        0.354325  -0.000000
  100        0.606877  -0.000000
  101        0.750093  -0.000000
  102        0.777576  -0.000000
  103        0.787303  -0.000000
  104        0.824178  -0.000000
  105        0.900226  -0.000000
  106        0.965780  -0.000000
  107        1.244712  -0.000000
  108        1.266654  -0.000000
  109        1.312372  -0.000000
  110        1.322477  -0.000000
  111        1.371227  -0.000000
  112        1.412702  -0.000000
  113        1.466732  -0.000000
  114        1.483805  -0.000000
  115        1.591665  -0.000000
  116        1.625996  -0.000000
  117        1.669238  -0.000000
  118        1.725936  -0.000000
  119        1.769717  -0.000000
  120        1.779389  -0.000000

  0.4444444E+00  0.3870091E-15  0.3932070E-15  0.6734007E-02
    1      -13.681081   1.000000
    2      -13.462719   1.000000
    3      -12.386496   1.000000
    4      -12.180167   1.000000
    5      -11.510807   1.000000
    6      -11.357266   1.000000
    7      -11.229054   1.000000
    8      -11.225711   1.000000
    9      -10.950196   1.000000
   10      -10.806477   1.000000
   11      -10.770516   1.000000
   12      -10.758206   1.000000
   13      -10.324319   1.000000
   14      -10.260103   1.000000
   15       -9.691176   1.000000
   16       -9.677721   1.000000
   17       -9.267978   1.000000
   18       -9.020558   1.000000
   19       -8.910685   1.000000
   20       -8.878932   1.000000
   21       -8.645270   1.000000
   22       -8.622847   1.000000
   23       -8.541286   1.000000
   24       -8.446305   1.000000
   25       -8.379020   1.000000
   26       -8.287306   1.000000
   27       -7.620830   1.000000
   28       -7.199013   1.000000
   29       -6.864151   1.000000
   30       -6.571158   1.000000
   31       -6.525071   1.000000
   32       -6.484124   1.000000
   33       -6.298711   1.000000
   34       -5.770197   1.000000
   35       -5.653196   1.000000
   36       -5.582197   1.000000
   37       -5.502039   1.000000
   38       -5.451791   1.000000
   39       -5.346753   1.000000
   40       -5.321520   1.000000
   41       -5.243306   1.000000
   42       -5.121309   1.000000
   43       -5.067809   1.000000
   44       -4.995577   1.000000
   45       -4.889859   1.000000
   46       -4.827071   1.000000
   47       -4.777466   1.000000
   48       -4.753609   1.000000
   49       -4.645739   1.000000
   50       -4.558267   1.000000
   51       -4.487307   1.000000
   52       -4.465281   1.000000
   53       -4.428017   1.000000
   54       -4.336885   1.000000
   55       -4.240011   1.000000
   56       -4.220722   1.000000
   57       -4.174696   1.000000
   58       -4.143121   1.000000
   59       -4.009848   1.000000
   60       -3.991316   1.000000
   61       -3.892527   1.000000
   62       -3.789285   1.000000
   63       -3.723214   1.000000
   64       -3.654029   1.000000
   65       -3.605592   1.000000
   66       -3.495752   1.000000
   67       -3.437648   1.000000
   68       -3.358326   1.000000
   69       -3.336930   1.000000
   70       -3.157718   1.000000
   71       -3.064850   1.000000
   72       -3.004833   1.000000
   73       -2.887337   1.000000
   74       -2.826138   1.000000
   75       -2.776231   1.000000
   76       -2.716142   1.000000
   77       -2.541612   1.000000
   78       -2.482174   1.000000
   79       -2.353146   1.000000
   80       -2.226111   1.000000
   81       -1.834410   1.000000
   82       -1.748091   1.000000
   83       -1.583930   1.000000
   84       -1.388164   1.000000
   85       -1.147320   1.000000
   86       -1.013978   1.000000
   87       -0.973040   1.000000
   88       -0.896620   1.000000
   89       -0.726679   1.000000
   90       -0.631159   1.000000
   91       -0.568239   1.000000
   92       -0.295854   1.003578
   93       -0.085715   0.606063
   94       -0.002677   0.038762
   95        0.014160  -0.006303
   96        0.173636  -0.001340
   97        0.253969  -0.000019
   98        0.284768  -0.000003
   99        0.501893  -0.000000
  100        0.589793  -0.000000
  101        0.682844  -0.000000
  102        0.782663  -0.000000
  103        0.803193  -0.000000
  104        0.852937  -0.000000
  105        1.088767  -0.000000
  106        1.104990  -0.000000
  107        1.205003  -0.000000
  108        1.316455  -0.000000
  109        1.345410  -0.000000
  110        1.372228  -0.000000
  111        1.393207  -0.000000
  112        1.442479  -0.000000
  113        1.468704  -0.000000
  114        1.481067  -0.000000
  115        1.501154  -0.000000
  116        1.604583  -0.000000
  117        1.612224  -0.000000
  118        1.645443  -0.000000
  119        1.685948  -0.000000
  120        1.721539  -0.000000

  0.3742002E-15  0.9090909E-01  0.3596334E-15  0.6734007E-02
    1      -14.062534   1.000000
    2      -12.710587   1.000000
    3      -12.606724   1.000000
    4      -12.048169   1.000000
    5      -11.640628   1.000000
    6      -11.471182   1.000000
    7      -11.416299   1.000000
    8      -11.238754   1.000000
    9      -11.149595   1.000000
   10      -10.825211   1.000000
   11      -10.792690   1.000000
   12      -10.396581   1.000000
   13      -10.263347   1.000000
   14      -10.211097   1.000000
   15       -9.884368   1.000000
   16       -9.848188   1.000000
   17       -9.181714   1.000000
   18       -9.093225   1.000000
   19       -9.028271   1.000000
   20       -8.715931   1.000000
   21       -8.680595   1.000000
   22       -8.552245   1.000000
   23       -8.160483   1.000000
   24       -8.116850   1.000000
   25       -8.001467   1.000000
   26       -7.983990   1.000000
   27       -7.520694   1.000000
   28       -7.312193   1.000000
   29       -6.919266   1.000000
   30       -6.722885   1.000000
   31       -6.627807   1.000000
   32       -6.292389   1.000000
   33       -6.217605   1.000000
   34       -6.067500   1.000000
   35       -5.864731   1.000000
   36       -5.767584   1.000000
   37       -5.620395   1.000000
   38       -5.590599   1.000000
   39       -5.474210   1.000000
   40       -5.388142   1.000000
   41       -5.314901   1.000000
   42       -5.253967   1.000000
   43       -5.226121   1.000000
   44       -5.167507   1.000000
   45       -5.025732   1.000000
   46       -4.941205   1.000000
   47       -4.861807   1.000000
   48       -4.828966   1.000000
   49       -4.734270   1.000000
   50       -4.694190   1.000000
   51       -4.668852   1.000000
   52       -4.565908   1.000000
   53       -4.529419   1.000000
   54       -4.456490   1.000000
   55       -4.386985   1.000000
   56       -4.260573   1.000000
   57       -4.165692   1.000000
   58       -4.110516   1.000000
   59       -4.080103   1.000000
   60       -3.911887   1.000000
   61       -3.696219   1.000000
   62       -3.645215   1.000000
   63       -3.597168   1.000000
   64       -3.575221   1.000000
   65       -3.499430   1.000000
   66       -3.486693   1.000000
   67       -3.401635   1.000000
   68       -3.388548   1.000000
   69       -3.259139   1.000000
   70       -3.206870   1.000000
   71       -3.153491   1.000000
   72       -3.044408   1.000000
   73       -2.875540   1.000000
   74       -2.545298   1.000000
   75       -2.528454   1.000000
   76       -2.494283   1.000000
   77       -2.403693   1.000000
   78       -2.323258   1.000000
   79       -2.202845   1.000000
   80       -2.128912   1.000000
   81       -1.929336   1.000000
   82       -1.633983   1.000000
   83       -1.451962   1.000000
   84       -1.411808   1.000000
   85       -1.341294   1.000000
   86       -1.166990   1.000000
   87       -1.150641   1.000000
   88       -1.107388   1.000000
   89       -0.798901   1.000000
   90       -0.629746   1.000000
   91       -0.422826   1.000004
   92       -0.226007   1.026325
   93       -0.206838   1.033780
   94       -0.134119   0.924663
   95        0.031445  -0.029200
   96        0.082937  -0.024914
   97        0.121386  -0.009523
   98        0.304942  -0.000001
   99        0.319099  -0.000000
  100        0.465837  -0.000000
  101        0.649839  -0.000000
  102        0.721269  -0.000000
  103        0.744186  -0.000000
  104        0.833994  -0.000000
  105        0.913522  -0.000000
  106        1.035670  -0.000000
  107        1.066808  -0.000000
  108        1.191843  -0.000000
  109        1.198799  -0.000000
  110        1.276079  -0.000000
  111        1.304997  -0.000000
  112        1.367867  -0.000000
  113        1.417635  -0.000000
  114        1.517300  -0.000000
  115        1.549892  -0.000000
  116        1.595370  -0.000000
  117        1.613583  -0.000000
  118        1.705868  -0.000000
  119        1.730437  -0.000000
  120        1.850668  -0.000000

  0.1111111E+00  0.9090909E-01  0.4822234E-15  0.6734007E-02
    1      -14.013804   1.000000
    2      -12.796499   1.000000
    3      -12.656892   1.000000
    4      -11.977018   1.000000
    5      -11.614690   1.000000
    6      -11.516960   1.000000
    7      -11.363007   1.000000
    8      -11.239654   1.000000
    9      -11.172581   1.000000
   10      -10.824192   1.000000
   11      -10.734439   1.000000
   12      -10.436126   1.000000
   13      -10.302696   1.000000
   14      -10.237560   1.000000
   15       -9.844767   1.000000
   16       -9.801213   1.000000
   17       -9.213392   1.000000
   18       -9.072099   1.000000
   19       -8.984533   1.000000
   20       -8.786427   1.000000
   21       -8.701749   1.000000
   22       -8.563365   1.000000
   23       -8.226664   1.000000
   24       -8.091938   1.000000
   25       -8.027916   1.000000
   26       -8.004028   1.000000
   27       -7.654354   1.000000
   28       -7.312406   1.000000
   29       -6.831402   1.000000
   30       -6.734758   1.000000
   31       -6.532574   1.000000
   32       -6.274106   1.000000
   33       -6.198914   1.000000
   34       -6.052017   1.000000
   35       -5.893395   1.000000
   36       -5.684254   1.000000
   37       -5.641771   1.000000
   38       -5.530275   1.000000
   39       -5.514263   1.000000
   40       -5.401693   1.000000
   41       -5.288525   1.000000
   42       -5.258182   1.000000
   43       -5.189740   1.000000
   44       -5.173134   1.000000
   45       -4.976820   1.000000
   46       -4.884024   1.000000
   47       -4.822580   1.000000
   48       -4.798033   1.000000
   49       -4.702404   1.000000
   50       -4.653695   1.000000
   51       -4.633993   1.000000
   52       -4.566679   1.000000
   53       -4.519361   1.000000
   54       -4.471770   1.000000
   55       -4.393554   1.000000
   56       -4.282059   1.000000
   57       -4.167266   1.000000
   58       -4.105978   1.000000
   59       -4.081607   1.000000
   60       -3.896680   1.000000
   61       -3.703531   1.000000
   62       -3.690155   1.000000
   63       -3.654014   1.000000
   64       -3.580882   1.000000
   65       -3.487267   1.000000
   66       -3.475723   1.000000
   67       -3.378797   1.000000
   68       -3.369185   1.000000
   69       -3.264063   1.000000
   70       -3.252080   1.000000
   71       -3.198197   1.000000
   72       -3.083054   1.000000
   73       -2.814718   1.000000
   74       -2.624522   1.000000
   75       -2.560364   1.000000
   76       -2.548716   1.000000
   77       -2.412985   1.000000
   78       -2.375655   1.000000
   79       -2.206904   1.000000
   80       -2.149215   1.000000
   81       -1.915635   1.000000
   82       -1.606954   1.000000
   83       -1.531771   1.000000
   84       -1.485702   1.000000
   85       -1.316183   1.000000
   86       -1.116231   1.000000
   87       -1.033449   1.000000
   88       -0.951224   1.000000
   89       -0.854822   1.000000
   90       -0.715056   1.000000
   91       -0.441541   1.000001
   92       -0.239823   1.019983
   93       -0.195419   1.035458
   94       -0.017804   0.102359
   95        0.006907   0.010012
   96        0.086070  -0.023464
   97        0.103782  -0.015670
   98        0.248788  -0.000026
   99        0.270385  -0.000007
  100        0.595874  -0.000000
  101        0.685309  -0.000000
  102        0.706464  -0.000000
  103        0.766092  -0.000000
  104        0.857750  -0.000000
  105        0.907995  -0.000000
  106        1.014525  -0.000000
  107        1.148309  -0.000000
  108        1.155749  -0.000000
  109        1.222142  -0.000000
  110        1.238604  -0.000000
  111        1.336661  -0.000000
  112        1.405517  -0.000000
  113        1.466975  -0.000000
  114        1.515788  -0.000000
  115        1.557568  -0.000000
  116        1.590572  -0.000000
  117        1.618657  -0.000000
  118        1.690896  -0.000000
  119        1.771491  -0.000000
  120        1.802690  -0.000000

  0.2222222E+00  0.9090909E-01  0.3065600E-15  0.6734007E-02
    1      -13.913014   1.000000
    2      -13.042346   1.000000
    3      -12.570950   1.000000
    4      -11.975175   1.000000
    5      -11.572957   1.000000
    6      -11.548487   1.000000
    7      -11.319132   1.000000
    8      -11.283396   1.000000
    9      -11.110340   1.000000
   10      -10.793087   1.000000
   11      -10.648849   1.000000
   12      -10.531422   1.000000
   13      -10.383423   1.000000
   14      -10.277179   1.000000
   15       -9.769157   1.000000
   16       -9.708693   1.000000
   17       -9.245996   1.000000
   18       -9.116117   1.000000
   19       -8.891209   1.000000
   20       -8.822563   1.000000
   21       -8.776958   1.000000
   22       -8.619835   1.000000
   23       -8.324821   1.000000
   24       -8.105026   1.000000
   25       -8.053949   1.000000
   26       -7.942753   1.000000
   27       -7.861550   1.000000
   28       -7.254349   1.000000
   29       -6.789881   1.000000
   30       -6.707665   1.000000
   31       -6.453602   1.000000
   32       -6.358674   1.000000
   33       -6.165868   1.000000
   34       -6.005530   1.000000
   35       -5.868494   1.000000
   36       -5.733654   1.000000
   37       -5.532485   1.000000
   38       -5.490821   1.000000
   39       -5.399587   1.000000
   40       -5.356794   1.000000
   41       -5.301680   1.000000
   42       -5.243788   1.000000
   43       -5.150546   1.000000
   44       -5.116654   1.000000
   45       -4.942141   1.000000
   46       -4.870998   1.000000
   47       -4.791016   1.000000
   48       -4.741796   1.000000