 running on   60 total cores
 distrk:  each k-point on   60 cores,    1 groups
 distr:  one band on   10 cores,    6 groups
 using from now: INCAR     
 vasp.5.4.4.18Apr17-6-g9f103f2a35 (build Dec  7 2020 12:43:57) complex           
 POSCAR found type information on POSCAR  V  B  H 
 POSCAR found :  3 types and      49 ions
 scaLAPACK will be used
 LDA part: xc-table for Pade appr. of Perdew
 POSCAR, INCAR and KPOINTS ok, starting setup
 FFT: planning ...
 WAVECAR not read
 WARNING: random wavefunctions but no delay for mixing, default for NELMDL
 entering main loop
       N       E                     dE             d eps       ncg     rms          rms(c)
DAV:   1     0.296382660217E+04    0.29638E+04   -0.14198E+05 30828   0.150E+03
DAV:   2    -0.203940437804E+03   -0.31678E+04   -0.30890E+04 28992   0.457E+02
DAV:   3    -0.434983995146E+03   -0.23104E+03   -0.22689E+03 33768   0.127E+02
DAV:   4    -0.442568032079E+03   -0.75840E+01   -0.74797E+01 31824   0.220E+01
DAV:   5    -0.442821700044E+03   -0.25367E+00   -0.25256E+00 33240   0.374E+00    0.104E+02
DAV:   6    -0.412249090412E+03    0.30573E+02   -0.99554E+02 32928   0.927E+01    0.633E+01
DAV:   7    -0.443316745965E+03   -0.31068E+02   -0.10921E+03 37212   0.112E+02    0.616E+01
DAV:   8    -0.395413589902E+03    0.47903E+02   -0.70957E+02 35016   0.722E+01    0.452E+01
DAV:   9    -0.386061505502E+03    0.93521E+01   -0.24914E+02 33120   0.401E+01    0.484E+01
DAV:  10    -0.365940498057E+03    0.20121E+02   -0.98636E+01 33492   0.285E+01    0.274E+01
DAV:  11    -0.359395354482E+03    0.65451E+01   -0.22031E+01 34368   0.137E+01    0.966E+00
DAV:  12    -0.359082083527E+03    0.31327E+00   -0.32209E+00 32868   0.574E+00    0.780E+00
DAV:  13    -0.358716852008E+03    0.36523E+00   -0.14144E+00 33636   0.409E+00    0.489E+00
DAV:  14    -0.358446889122E+03    0.26996E+00   -0.22149E+00 33684   0.509E+00    0.259E+00
DAV:  15    -0.358487760561E+03   -0.40871E-01   -0.68386E-01 33144   0.301E+00    0.344E+00
DAV:  16    -0.358412136606E+03    0.75624E-01   -0.35236E-01 33060   0.211E+00    0.154E+00
DAV:  17    -0.358390478359E+03    0.21658E-01   -0.61825E-02 33528   0.793E-01    0.839E-01
DAV:  18    -0.358379170409E+03    0.11308E-01   -0.42800E-02 32088   0.747E-01    0.367E-01
DAV:  19    -0.358378100680E+03    0.10697E-02   -0.99542E-03 33312   0.406E-01    0.236E-01
DAV:  20    -0.358377446589E+03    0.65409E-03   -0.52318E-03 33552   0.292E-01    0.175E-01
DAV:  21    -0.358377131365E+03    0.31522E-03   -0.40809E-03 30612   0.191E-01    0.131E-01
DAV:  22    -0.358377260430E+03   -0.12907E-03   -0.15657E-03 32640   0.135E-01    0.598E-02
DAV:  23    -0.358377627254E+03   -0.36682E-03   -0.66019E-04 30828   0.800E-02    0.714E-02
DAV:  24    -0.358377772091E+03   -0.14484E-03   -0.75816E-04 32424   0.947E-02    0.406E-02
DAV:  25    -0.358378245501E+03   -0.47341E-03   -0.15561E-04 29076   0.325E-02    0.161E-02
DAV:  26    -0.358378759709E+03   -0.51421E-03   -0.35251E-05 24420   0.126E-02    0.140E-02
DAV:  27    -0.358379360863E+03   -0.60115E-03   -0.11526E-04 30216   0.281E-02    0.213E-02
DAV:  28    -0.358379627657E+03   -0.26679E-03   -0.57692E-05 30180   0.217E-02    0.556E-03
DAV:  29    -0.358379715299E+03   -0.87641E-04   -0.88695E-06 25440   0.617E-03    0.248E-03
DAV:  30    -0.358379766202E+03   -0.50904E-04   -0.43362E-06 22380   0.341E-03    0.117E-03
DAV:  31    -0.358379779077E+03   -0.12875E-04   -0.85418E-07 20640   0.189E-03    0.180E-03
DAV:  32    -0.358379785406E+03   -0.63291E-05   -0.38001E-07 18852   0.148E-03    0.671E-04
DAV:  33    -0.358379787351E+03   -0.19450E-05   -0.10158E-07 16320   0.595E-04    0.362E-04
DAV:  34    -0.358379788727E+03   -0.13755E-05   -0.82511E-08 16608   0.454E-04    0.212E-04
DAV:  35    -0.358379789661E+03   -0.93491E-06   -0.60278E-08 16380   0.339E-04
   1 F= -.35837979E+03 E0= -.35837823E+03  d E =-.358380E+03
 curvature:   0.00 expect dE= 0.000E+00 dE for cont linesearch  0.000E+00
 trial: gam= 0.00000 g(F)=  0.619E+00 g(S)=  0.000E+00 ort = 0.000E+00 (trialstep = 0.100E+01)
 search vector abs. value=  0.619E+00
 bond charge predicted
       N       E                     dE             d eps       ncg     rms          rms(c)
DAV:   1    -0.358890954359E+03   -0.51117E+00   -0.10087E+01 26232   0.569E+00    0.817E-01
DAV:   2    -0.358923161725E+03   -0.32207E-01   -0.32534E-01 32016   0.155E+00    0.114E+00
DAV:   3    -0.358910622794E+03    0.12539E-01   -0.20564E-01 33588   0.149E+00    0.971E-01
DAV:   4    -0.358902755124E+03    0.78677E-02   -0.52959E-02 33624   0.752E-01    0.464E-01
DAV:   5    -0.358905039741E+03   -0.22846E-02   -0.37801E-02 33840   0.719E-01    0.617E-01
DAV:   6    -0.358900211856E+03    0.48279E-02   -0.25055E-02 33912   0.525E-01    0.138E-01
DAV:   7    -0.358900253359E+03   -0.41503E-04   -0.25699E-03 32868   0.154E-01    0.876E-02
DAV:   8    -0.358900113731E+03    0.13963E-03   -0.10599E-03 32784   0.116E-01    0.506E-02
DAV:   9    -0.358900112343E+03    0.13874E-05   -0.28279E-04 33396   0.755E-02    0.430E-02
DAV:  10    -0.358900100909E+03    0.11435E-04   -0.86139E-05 32712   0.398E-02    0.173E-02
DAV:  11    -0.358900105964E+03   -0.50554E-05   -0.42227E-05 33504   0.343E-02    0.268E-02
DAV:  12    -0.358900100774E+03    0.51900E-05   -0.24339E-05 33132   0.265E-02    0.633E-03
DAV:  13    -0.358900101471E+03   -0.69667E-06   -0.44892E-06 24384   0.107E-02
   2 F= -.35890010E+03 E0= -.35889849E+03  d E =-.520312E+00
 trial-energy change:   -0.520312  1 .order   -0.514166   -0.618824   -0.409507
 step:   2.3787(harm=  2.9564)  dis= 0.00000  next Energy=  -359.198490 (dE=-0.819E+00)
 bond charge predicted
       N       E                     dE             d eps       ncg     rms          rms(c)
DAV:   1    -0.359181916531E+03   -0.28182E+00   -0.19857E+01 25872   0.808E+00    0.127E+00
DAV:   2    -0.359245169004E+03   -0.63252E-01   -0.67203E-01 31956   0.224E+00    0.170E+00
DAV:   3    -0.359221846022E+03    0.23323E-01   -0.47586E-01 33816   0.207E+00    0.151E+00
DAV:   4    -0.359203388589E+03    0.18457E-01   -0.12393E-01 32988   0.112E+00    0.701E-01
DAV:   5    -0.359208050928E+03   -0.46623E-02   -0.81313E-02 34008   0.108E+00    0.904E-01
DAV:   6    -0.359197849581E+03    0.10201E-01   -0.55352E-02 34104   0.764E-01    0.207E-01
DAV:   7    -0.359197961860E+03   -0.11228E-03   -0.58041E-03 32940   0.236E-01    0.135E-01
DAV:   8    -0.359197617545E+03    0.34431E-03   -0.23429E-03 32880   0.173E-01    0.748E-02
DAV:   9    -0.359197601783E+03    0.15761E-04   -0.49160E-04 33192   0.989E-02    0.514E-02
DAV:  10    -0.359197584868E+03    0.16916E-04   -0.12766E-04 32808   0.520E-02    0.251E-02
DAV:  11    -0.359197594296E+03   -0.94280E-05   -0.84060E-05 33624   0.458E-02    0.373E-02
DAV:  12    -0.359197584144E+03    0.10152E-04   -0.50400E-05 33540   0.384E-02    0.879E-03
DAV:  13    -0.359197585426E+03   -0.12822E-05   -0.98711E-06 27468   0.150E-02    0.117E-02
DAV:  14    -0.359197584696E+03    0.72954E-06   -0.50465E-06 24192   0.122E-02
   3 F= -.35919758E+03 E0= -.35919616E+03  d E =-.817795E+00
 curvature:  -1.35 expect dE=-0.681E-02 dE for cont linesearch -0.566E-04
 ZBRENT: interpolating
 opt :   2.3617  next Energy=  -359.197628 (dE=-0.818E+00)
 bond charge predicted
       N       E                     dE             d eps       ncg     rms          rms(c)
DAV:   1    -0.359197616280E+03   -0.30854E-04   -0.30328E-03 22476   0.101E-01    0.167E-02
DAV:   2    -0.359197627884E+03   -0.11604E-04   -0.11921E-04 28440   0.320E-02    0.235E-02
DAV:   3    -0.359197623058E+03    0.48260E-05   -0.85469E-05 29724   0.333E-02    0.197E-02
DAV:   4    -0.359197620373E+03    0.26853E-05   -0.22052E-05 30828   0.171E-02    0.106E-02
DAV:   5    -0.359197621818E+03   -0.14449E-05   -0.18792E-05 29208   0.192E-02    0.135E-02
DAV:   6    -0.359197619720E+03    0.20978E-05   -0.10499E-05 26256   0.136E-02    0.305E-03
DAV:   7    -0.359197619995E+03   -0.27520E-06   -0.16172E-06 21048   0.572E-03
   4 F= -.35919762E+03 E0= -.35919619E+03  d E =-.817830E+00
 curvature:  -1.03 expect dE=-0.510E-02 dE for cont linesearch -0.230E-05
 ZBRENT: interpolating
 opt :   2.3649  next Energy=  -359.197622 (dE=-0.818E+00)
 bond charge predicted
       N       E                     dE             d eps       ncg     rms          rms(c)
DAV:   1    -0.359197621794E+03   -0.20738E-05   -0.10881E-04 22584   0.212E-02    0.334E-03
DAV:   2    -0.359197623243E+03   -0.14491E-05   -0.84980E-06 26520   0.938E-03    0.811E-03
DAV:   3    -0.359197622144E+03    0.10987E-05   -0.57893E-06 22392   0.864E-03    0.271E-03
DAV:   4    -0.359197622307E+03   -0.16240E-06   -0.45961E-07 16740   0.298E-03    0.245E-03
DAV:   5    -0.359197622494E+03   -0.18715E-06   -0.53536E-07 16200   0.364E-03
   5 F= -.35919762E+03 E0= -.35919620E+03  d E =-.817833E+00
 curvature:  -0.84 expect dE=-0.415E-02 dE for cont linesearch -0.904E-09
 trial: gam= 0.00798 g(F)=  0.496E-02 g(S)=  0.000E+00 ort = 0.259E-04 (trialstep = 0.127E+01)
 search vector abs. value=  0.500E-02
 bond charge predicted
       N       E                     dE             d eps       ncg     rms          rms(c)
DAV:   1    -0.359201510269E+03   -0.38880E-02   -0.13861E-01 24048   0.663E-01    0.110E-01
DAV:   2    -0.359201694561E+03   -0.18429E-03   -0.36554E-03 30816   0.117E-01    0.745E-02
DAV:   3    -0.359202162124E+03   -0.46756E-03   -0.28270E-03 34464   0.191E-01    0.194E-01
DAV:   4    -0.359201673514E+03    0.48861E-03   -0.23899E-03 34680   0.170E-01    0.445E-02
DAV:   5    -0.359201696043E+03   -0.22529E-04   -0.41611E-04 33228   0.846E-02    0.610E-02
DAV:   6    -0.359201659520E+03    0.36523E-04   -0.17105E-04 33300   0.584E-02    0.113E-02
DAV:   7    -0.359201658724E+03    0.79593E-06   -0.18843E-05 28896   0.138E-02    0.527E-03
DAV:   8    -0.359201659029E+03   -0.30461E-06   -0.60465E-06 27504   0.984E-03
   6 F= -.35920166E+03 E0= -.35920022E+03  d E =-.403653E-02
 trial-energy change:   -0.004037  1 .order   -0.004037   -0.006316   -0.001759
 step:   1.7644(harm=  1.7644)  dis= 0.01225  next Energy=  -359.201999 (dE=-0.438E-02)
 bond charge predicted
       N       E                     dE             d eps       ncg     rms          rms(c)
DAV:   1    -0.359201973818E+03   -0.31509E-03   -0.20662E-02 21960   0.260E-01    0.431E-02
DAV:   2    -0.359202008064E+03   -0.34246E-04   -0.59652E-04 28032   0.530E-02    0.342E-02
DAV:   3    -0.359202054751E+03   -0.46687E-04   -0.38403E-04 34272   0.747E-02    0.681E-02
DAV:   4    -0.359202009339E+03    0.45412E-04   -0.32111E-04 34632   0.622E-02    0.322E-02
DAV:   5    -0.359202003879E+03    0.54607E-05   -0.10365E-04 33804   0.410E-02    0.180E-02
DAV:   6    -0.359202000977E+03    0.29018E-05   -0.25598E-05 29868   0.205E-02    0.811E-03
DAV:   7    -0.359202000649E+03    0.32774E-06   -0.76459E-06 26580   0.132E-02
   7 F= -.35920200E+03 E0= -.35920056E+03  d E =-.437816E-02
 curvature:  -0.89 expect dE=-0.230E-04 dE for cont linesearch -0.873E-08
 trial: gam= 0.00188 g(F)=  0.259E-04 g(S)=  0.000E+00 ort =-0.701E-05 (trialstep = 0.137E+01)
 search vector abs. value=  0.259E-04
 reached required accuracy - stopping structural energy minimisation
