   54   54   85    1
  0.1529376E+02  0.6071501E-09  0.6071501E-09  0.2586333E-08  0.5000000E-15
   1.0000000000000000E-004
  CAR 
 Name                                    
    198     41    132

  0.3742002E-15  0.3742002E-15  0.1262379E-14  0.1234568E-01
    1      -12.259541   1.000000
    2      -11.626167   1.000000
    3      -10.954796   1.000000
    4      -10.469640   1.000000
    5       -9.160334   1.000000
    6       -9.060203   1.000000
    7       -8.954447   1.000000
    8       -8.724415   1.000000
    9       -8.562678   1.000000
   10       -8.560331   1.000000
   11       -8.396963   1.000000
   12       -8.369824   1.000000
   13       -8.336443   1.000000
   14       -8.326598   1.000000
   15       -8.298736   1.000000
   16       -8.224588   1.000000
   17       -8.110606   1.000000
   18       -8.084648   1.000000
   19       -8.040113   1.000000
   20       -7.680726   1.000000
   21       -7.596485   1.000000
   22       -7.376993   1.000000
   23       -6.980305   1.000000
   24       -6.789639   1.000000
   25       -6.707722   1.000000
   26       -6.659729   1.000000
   27       -6.460021   1.000000
   28       -5.661627   1.000000
   29       -5.563966   1.000000
   30       -5.473443   1.000000
   31       -4.627743   1.000000
   32       -4.156619   1.000000
   33       -4.099385   1.000000
   34       -3.972439   1.000000
   35       -3.661100   1.000000
   36       -3.587717   1.000000
   37       -3.489641   1.000000
   38       -3.446574   1.000000
   39       -3.414263   1.000000
   40       -3.381750   1.000000
   41       -3.351034   1.000000
   42       -3.231824   1.000000
   43       -3.224707   1.000000
   44       -3.194591   1.000000
   45       -2.880482   1.000000
   46       -2.816486   1.000000
   47       -2.727876   1.000000
   48       -2.706638   1.000000
   49       -2.693469   1.000000
   50       -2.626171   1.000000
   51       -2.589106   1.000000
   52       -2.577494   1.000000
   53       -2.549448   1.000000
   54       -2.535003   1.000000
   55       -2.309220   1.000000
   56       -2.286003   1.000000
   57       -2.219662   1.000000
   58       -2.182932   1.000000
   59       -2.119986   1.000000
   60       -2.099730   1.000000
   61       -2.018144   1.000000
   62       -2.006644   1.000000
   63       -1.837432   1.000000
   64       -1.824323   1.000000
   65       -1.790988   1.000000
   66       -1.734439   1.000000
   67       -1.702307   1.000000
   68       -1.623395   1.000000
   69       -1.407312   1.000000
   70       -1.399273   1.000000
   71       -1.216366   1.000000
   72       -1.075036   1.000000
   73       -0.885003   1.000000
   74       -0.842137   1.000000
   75       -0.795374   1.000000
   76       -0.760152   1.000000
   77        0.114678   1.000000
   78        0.187090   1.000000
   79        0.211573   1.000000
   80        0.244302   1.000000
   81        0.411877   1.000000
   82        0.418690   1.000000
   83        0.581699   1.000000
   84        0.603692   1.000000
   85        0.854916   1.000000
   86        1.052730   1.000000
   87        1.064562   1.000000
   88        1.295349   1.000000
   89        1.425425   1.000000
   90        1.488609   1.000000
   91        1.798116   1.000217
   92        1.819570   1.000376
   93        1.842190   1.000654
   94        1.964139   1.007632
   95        2.162607   1.027258
   96        2.200813   0.997541
   97        2.221705   0.968772
   98        2.385617   0.421588
   99        2.662399  -0.028664
  100        2.708996  -0.018114
  101        2.788674  -0.005546
  102        2.832126  -0.002435
  103        2.918461  -0.000340
  104        2.930301  -0.000251
  105        3.034478  -0.000013
  106        3.062828  -0.000005
  107        3.171807  -0.000000
  108        3.200261  -0.000000
  109        3.264167  -0.000000
  110        3.290857  -0.000000
  111        3.351726  -0.000000
  112        3.423130  -0.000000
  113        3.485718  -0.000000
  114        3.515138  -0.000000
  115        3.519905  -0.000000
  116        3.546048  -0.000000
  117        3.562570  -0.000000
  118        3.583299  -0.000000
  119        3.610794  -0.000000
  120        3.656209  -0.000000
  121        3.722872  -0.000000
  122        3.798216  -0.000000
  123        3.807247  -0.000000
  124        3.855136  -0.000000
  125        3.881077  -0.000000
  126        4.035338  -0.000000
  127        4.147692  -0.000000
  128        4.234317  -0.000000
  129        4.304731  -0.000000
  130        4.329988  -0.000000
  131        4.396806  -0.000000
  132        4.456554  -0.000000

  0.1111111E+00  0.3762813E-15  0.1262379E-14  0.2469136E-01
    1      -12.201444   1.000000
    2      -11.573701   1.000000
    3      -10.912587   1.000000
    4      -10.438779   1.000000
    5       -9.236745   1.000000
    6       -9.071514   1.000000
    7       -9.054402   1.000000
    8       -8.971754   1.000000
    9       -8.850459   1.000000
   10       -8.728976   1.000000
   11       -8.635777   1.000000
   12       -8.594283   1.000000
   13       -8.554837   1.000000
   14       -8.520683   1.000000
   15       -8.318975   1.000000
   16       -8.164637   1.000000
   17       -7.841887   1.000000
   18       -7.823579   1.000000
   19       -7.506309   1.000000
   20       -7.469140   1.000000
   21       -7.282628   1.000000
   22       -7.210044   1.000000
   23       -6.866613   1.000000
   24       -6.691960   1.000000
   25       -6.647612   1.000000
   26       -6.540051   1.000000
   27       -6.378425   1.000000
   28       -5.601199   1.000000
   29       -5.500637   1.000000
   30       -5.335919   1.000000
   31       -4.598491   1.000000
   32       -4.159467   1.000000
   33       -4.138358   1.000000
   34       -3.950171   1.000000
   35       -3.677921   1.000000
   36       -3.613935   1.000000
   37       -3.551217   1.000000
   38       -3.485077   1.000000
   39       -3.446462   1.000000
   40       -3.383883   1.000000
   41       -3.362848   1.000000
   42       -3.306486   1.000000
   43       -3.246375   1.000000
   44       -3.212338   1.000000
   45       -3.135754   1.000000
   46       -3.058179   1.000000
   47       -2.862498   1.000000
   48       -2.788704   1.000000
   49       -2.743508   1.000000
   50       -2.690170   1.000000
   51       -2.596376   1.000000
   52       -2.546260   1.000000
   53       -2.498016   1.000000
   54       -2.400865   1.000000
   55       -2.290249   1.000000
   56       -2.243096   1.000000
   57       -2.228925   1.000000
   58       -2.171155   1.000000
   59       -2.142175   1.000000
   60       -2.067875   1.000000
   61       -2.005950   1.000000
   62       -1.964873   1.000000
   63       -1.859249   1.000000
   64       -1.836802   1.000000
   65       -1.795087   1.000000
   66       -1.702055   1.000000
   67       -1.637677   1.000000
   68       -1.563007   1.000000
   69       -1.465672   1.000000
   70       -1.401778   1.000000
   71       -1.182329   1.000000
   72       -1.140167   1.000000
   73       -1.118984   1.000000
   74       -1.018993   1.000000
   75       -0.860738   1.000000
   76       -0.782197   1.000000
   77       -0.137724   1.000000
   78        0.019145   1.000000
   79        0.056853   1.000000
   80        0.259968   1.000000
   81        0.393447   1.000000
   82        0.511659   1.000000
   83        0.588246   1.000000
   84        0.622256   1.000000
   85        0.781661   1.000000
   86        0.827396   1.000000
   87        0.964296   1.000000
   88        1.428578   1.000000
   89        1.456414   1.000000
   90        1.643969   1.000002
   91        1.829568   1.000482
   92        1.879051   1.001509
   93        1.940856   1.005124
   94        1.996987   1.012583
   95        2.030487   1.019314
   96        2.062117   1.026551
   97        2.254032   0.903605
   98        2.388414   0.409950
   99        2.643163  -0.032450
  100        2.734820  -0.012974
  101        2.824137  -0.002858
  102        2.847621  -0.001766
  103        2.891772  -0.000654
  104        2.919773  -0.000329
  105        2.964535  -0.000100
  106        3.007686  -0.000029
  107        3.069664  -0.000004
  108        3.147780  -0.000000
  109        3.182813  -0.000000
  110        3.254318  -0.000000
  111        3.283162  -0.000000
  112        3.398934  -0.000000
  113        3.432308  -0.000000
  114        3.453998  -0.000000
  115        3.500650  -0.000000
  116        3.514886  -0.000000
  117        3.558602  -0.000000
  118        3.624209  -0.000000
  119        3.640533  -0.000000
  120        3.706528  -0.000000
  121        3.733300  -0.000000
  122        3.738200  -0.000000
  123        3.808277  -0.000000
  124        3.892029  -0.000000
  125        3.922491  -0.000000
  126        4.033767  -0.000000
  127        4.095715  -0.000000
  128        4.159684  -0.000000
  129        4.252131  -0.000000
  130        4.335185  -0.000000
  131        4.494058  -0.000000
  132        4.500853  -0.000000

  0.2222222E+00  0.3499357E-15  0.1262379E-14  0.2469136E-01
    1      -12.029002   1.000000
    2      -11.418395   1.000000
    3      -10.788464   1.000000
    4      -10.346395   1.000000
    5       -9.731783   1.000000
    6       -9.440320   1.000000
    7       -9.326103   1.000000
    8       -9.094396   1.000000
    9       -9.081891   1.000000
   10       -8.940552   1.000000
   11       -8.876447   1.000000
   12       -8.830342   1.000000
   13       -8.719493   1.000000
   14       -8.704932   1.000000
   15       -8.403058   1.000000
   16       -8.220999   1.000000
   17       -7.396311   1.000000
   18       -7.382735   1.000000
   19       -7.106895   1.000000
   20       -7.015213   1.000000
   21       -6.734560   1.000000
   22       -6.703950   1.000000
   23       -6.627816   1.000000
   24       -6.523820   1.000000
   25       -6.255580   1.000000
   26       -6.222810   1.000000
   27       -6.112828   1.000000
   28       -5.447014   1.000000
   29       -5.412347   1.000000
   30       -4.927842   1.000000
   31       -4.523719   1.000000
   32       -4.260326   1.000000
   33       -4.210740   1.000000
   34       -3.965145   1.000000
   35       -3.907475   1.000000
   36       -3.834504   1.000000
   37       -3.804535   1.000000
   38       -3.779732   1.000000
   39       -3.581003   1.000000
   40       -3.522153   1.000000
   41       -3.442226   1.000000
   42       -3.421582   1.000000
   43       -3.365836   1.000000
   44       -3.269138   1.000000
   45       -3.186511   1.000000
   46       -3.112590   1.000000
   47       -2.897093   1.000000
   48       -2.848371   1.000000
   49       -2.771155   1.000000
   50       -2.736695   1.000000
   51       -2.723696   1.000000
   52       -2.575143   1.000000
   53       -2.536628   1.000000
   54       -2.511616   1.000000
   55       -2.370184   1.000000
   56       -2.269053   1.000000
   57       -2.227991   1.000000
   58       -2.205747   1.000000
   59       -2.103817   1.000000
   60       -2.061648   1.000000
   61       -2.016080   1.000000
   62       -1.982855   1.000000
   63       -1.961488   1.000000
   64       -1.883041   1.000000
   65       -1.806801   1.000000
   66       -1.732821   1.000000
   67       -1.699816   1.000000
   68       -1.604293   1.000000
   69       -1.566163   1.000000
   70       -1.483487   1.000000
   71       -1.384852   1.000000
   72       -1.216710   1.000000
   73       -1.091600   1.000000
   74       -0.884800   1.000000
   75       -0.813910   1.000000
   76       -0.764327   1.000000
   77       -0.669416   1.000000
   78       -0.251504   1.000000
   79       -0.055257   1.000000
   80       -0.007949   1.000000
   81        0.213517   1.000000
   82        0.407431   1.000000
   83        0.576551   1.000000
   84        0.688233   1.000000
   85        0.732452   1.000000
   86        0.745254   1.000000
   87        0.912072   1.000000
   88        1.171775   1.000000
   89        1.353890   1.000000
   90        1.460110   1.000000
   91        1.632019   1.000001
   92        1.870258   1.001245
   93        1.973313   1.008842
   94        2.024399   1.017985
   95        2.096902   1.033417
   96        2.304457   0.750830
   97        2.361677   0.522504
   98        2.455171   0.164086
   99        2.520348   0.018954
  100        2.601032  -0.034964
  101        2.641773  -0.032683
  102        2.714700  -0.016902
  103        2.760290  -0.008896
  104        2.804322  -0.004179
  105        2.951527  -0.000143
  106        2.994572  -0.000042
  107        3.043537  -0.000009
  108        3.091702  -0.000002
  109        3.163643  -0.000000
  110        3.205731  -0.000000
  111        3.231552  -0.000000
  112        3.282807  -0.000000
  113        3.294839  -0.000000
  114        3.330948  -0.000000
  115        3.412307  -0.000000
  116        3.460664  -0.000000
  117        3.525435  -0.000000
  118        3.544601  -0.000000
  119        3.587871  -0.000000
  120        3.673296  -0.000000
  121        3.775367  -0.000000
  122        3.803597  -0.000000
  123        3.871552  -0.000000
  124        3.902334  -0.000000
  125        3.941454  -0.000000
  126        4.043395  -0.000000
  127        4.093049  -0.000000
  128        4.121288  -0.000000
  129        4.333157  -0.000000
  130        4.361807  -0.000000
  131        4.482073  -0.000000
  132        4.549415  -0.000000

  0.3333333E+00  0.3916643E-15  0.1262379E-14  0.2469136E-01
    1      -11.747597   1.000000
    2      -11.166671   1.000000
    3      -10.592154   1.000000
    4      -10.336966   1.000000
    5      -10.190271   1.000000
    6       -9.924483   1.000000
    7       -9.684721   1.000000
    8       -9.331223   1.000000
    9       -9.167546   1.000000
   10       -9.149740   1.000000
   11       -8.963910   1.000000
   12       -8.944211   1.000000
   13       -8.814458   1.000000
   14       -8.803163   1.000000
   15       -8.442724   1.000000
   16       -8.310864   1.000000
   17       -6.924667   1.000000
   18       -6.913445   1.000000
   19       -6.682278   1.000000
   20       -6.642106   1.000000
   21       -6.550725   1.000000
   22       -6.513238   1.000000
   23       -5.937091   1.000000
   24       -5.895300   1.000000
   25       -5.834314   1.000000
   26       -5.755664   1.000000
   27       -5.579375   1.000000
   28       -5.366975   1.000000
   29       -5.167094   1.000000
   30       -4.648481   1.000000
   31       -4.551878   1.000000
   32       -4.543803   1.000000
   33       -4.396387   1.000000
   34       -4.376186   1.000000
   35       -4.300238   1.000000
   36       -4.276164   1.000000
   37       -4.208004   1.000000
   38       -3.782221   1.000000
   39       -3.627478   1.000000
   40       -3.587432   1.000000
   41       -3.559305   1.000000
   42       -3.522986   1.000000
   43       -3.408269   1.000000
   44       -3.301323   1.000000
   45       -3.136888   1.000000
   46       -3.066968   1.000000
   47       -3.025466   1.000000
   48       -2.989205   1.000000
   49       -2.933940   1.000000
   50       -2.871410   1.000000
   51       -2.821842   1.000000
   52       -2.728742   1.000000
   53       -2.648943   1.000000
   54       -2.589181   1.000000
   55       -2.480274   1.000000
   56       -2.438464   1.000000
   57       -2.329029   1.000000
   58       -2.291938   1.000000
   59       -2.218703   1.000000
   60       -2.145785   1.000000
   61       -2.089380   1.000000
   62       -2.012977   1.000000
   63       -1.978137   1.000000
   64       -1.940348   1.000000
   65       -1.837767   1.000000
   66       -1.761893   1.000000
   67       -1.711098   1.000000
   68       -1.637628   1.000000
   69       -1.566520   1.000000
   70       -1.525055   1.000000
   71       -1.333520   1.000000
   72       -1.241495   1.000000
   73       -1.055260   1.000000
   74       -0.966167   1.000000
   75       -0.733311   1.000000
   76       -0.649699   1.000000
   77       -0.549295   1.000000
   78       -0.402019   1.000000
   79       -0.323470   1.000000
   80       -0.089899   1.000000
   81        0.008362   1.000000
   82        0.109988   1.000000
   83        0.496682   1.000000
   84        0.529599   1.000000
   85        0.616897   1.000000
   86        0.893337   1.000000
   87        0.908868   1.000000
   88        1.061890   1.000000
   89        1.160122   1.000000
   90        1.321311   1.000000
   91        1.526857   1.000000
   92        1.619276   1.000001
   93        1.802422   1.000243
   94        1.851486   1.000813
   95        2.050400   1.023853
   96        2.108183   1.034785
   97        2.211322   0.984307
   98        2.278785   0.836032
   99        2.385566   0.421804
  100        2.448039   0.186308
  101        2.531274   0.004682
  102        2.639597  -0.033035
  103        2.661287  -0.028904
  104        2.730032  -0.013855
  105        2.840186  -0.002064
  106        2.874642  -0.000975
  107        2.961649  -0.000108
  108        2.991949  -0.000046
  109        3.026694  -0.000016
  110        3.111555  -0.000001
  111        3.140067  -0.000000
  112        3.193681  -0.000000
  113        3.225476  -0.000000
  114        3.261660  -0.000000
  115        3.304522  -0.000000
  116        3.533067  -0.000000
  117        3.637979  -0.000000
  118        3.667391  -0.000000
  119        3.729970  -0.000000
  120        3.795840  -0.000000
  121        3.833957  -0.000000
  122        3.882903  -0.000000
  123        3.938962  -0.000000
  124        3.990015  -0.000000
  125        4.047826  -0.000000
  126        4.119465  -0.000000
  127        4.167337  -0.000000
  128        4.242938  -0.000000
  129        4.312738  -0.000000
  130        4.389498  -0.000000
  131        4.436577  -0.000000
  132        4.547200  -0.000000

  0.4444444E+00  0.3830161E-15  0.1262379E-14  0.2469136E-01
    1      -11.365916   1.000000
    2      -10.905616   1.000000
    3      -10.814807   1.000000
    4      -10.404994   1.000000
    5      -10.316795   1.000000
    6      -10.015912   1.000000
    7       -9.973778   1.000000
    8       -9.682554   1.000000
    9       -9.225078   1.000000
   10       -9.201966   1.000000
   11       -9.010402   1.000000
   12       -8.966310   1.000000
   13       -8.871339   1.000000
   14       -8.839480   1.000000
   15       -8.439002   1.000000
   16       -8.385317   1.000000
   17       -6.643865   1.000000
   18       -6.624840   1.000000
   19       -6.355509   1.000000
   20       -6.336223   1.000000
   21       -6.287808   1.000000
   22       -6.271957   1.000000
   23       -5.601497   1.000000
   24       -5.428064   1.000000
   25       -5.363589   1.000000
   26       -5.169396   1.000000
   27       -5.086008   1.000000
   28       -5.049773   1.000000
   29       -5.029461   1.000000
   30       -5.004678   1.000000
   31       -4.929009   1.000000
   32       -4.792433   1.000000
   33       -4.694221   1.000000
   34       -4.628102   1.000000
   35       -4.471779   1.000000
   36       -4.417122   1.000000
   37       -4.341777   1.000000
   38       -4.249925   1.000000
   39       -3.912746   1.000000
   40       -3.738648   1.000000
   41       -3.626914   1.000000
   42       -3.516283   1.000000
   43       -3.417723   1.000000
   44       -3.313774   1.000000
   45       -3.280142   1.000000
   46       -3.178883   1.000000
   47       -3.058533   1.000000
   48       -2.999803   1.000000
   49       -2.952144   1.000000
   50       -2.875208   1.000000
   51       -2.839401   1.000000
   52       -2.757729   1.000000
   53       -2.694770   1.000000
   54       -2.627110   1.000000
   55       -2.527777   1.000000
   56       -2.442476   1.000000
   57       -2.401262   1.000000
   58       -2.348057   1.000000
   59       -2.322131   1.000000
   60       -2.287321   1.000000
   61       -2.184370   1.000000
   62       -2.127753   1.000000
   63       -2.083882   1.000000
   64       -2.055122   1.000000
   65       -1.865748   1.000000
   66       -1.766368   1.000000
   67       -1.675755   1.000000
   68       -1.605982   1.000000
   69       -1.500115   1.000000
   70       -1.447496   1.000000
   71       -1.263550   1.000000
   72       -1.184637   1.000000
   73       -0.909783   1.000000
   74       -0.848187   1.000000
   75       -0.798462   1.000000
   76       -0.724454   1.000000
   77       -0.657425   1.000000
   78       -0.536664   1.000000
   79       -0.354241   1.000000
   80       -0.106892   1.000000
   81        0.066817   1.000000
   82        0.159848   1.000000
   83        0.328586   1.000000
   84        0.402568   1.000000
   85        0.556002   1.000000
   86        0.682097   1.000000
   87        0.912466   1.000000
   88        1.051296   1.000000
   89        1.212235   1.000000
   90        1.394100   1.000000
   91        1.485717   1.000000
   92        1.494860   1.000000
   93        1.619343   1.000001
   94        1.767439   1.000095
   95        1.864257   1.001089
   96        1.935509   1.004653
   97        2.067932   1.027859
   98        2.122786   1.035456
   99        2.183721   1.014133
  100        2.223851   0.965245
  101        2.296710   0.778027
  102        2.441338   0.208235
  103        2.579987  -0.030621
  104        2.626475  -0.034722
  105        2.680374  -0.024599
  106        2.761180  -0.008772
  107        2.827101  -0.002694
  108        2.891680  -0.000656
  109        2.957410  -0.000122
  110        3.017740  -0.000021
  111        3.061146  -0.000005
  112        3.143432  -0.000000
  113        3.215481  -0.000000
  114        3.243083  -0.000000
  115        3.538088  -0.000000
  116        3.658315  -0.000000
  117        3.739533  -0.000000
  118        3.750589  -0.000000
  119        3.869611  -0.000000
  120        3.908684  -0.000000
  121        3.984416  -0.000000
  122        4.010404  -0.000000
  123        4.070234  -0.000000
  124        4.118830  -0.000000
  125        4.135533  -0.000000
  126        4.167891  -0.000000
  127        4.209214  -0.000000
  128        4.278843  -0.000000
  129        4.359663  -0.000000
  130        4.481099  -0.000000
  131        4.506149  -0.000000
  132        4.542158  -0.000000

  0.3742002E-15  0.1111111E+00  0.1262379E-14  0.2469136E-01
    1      -12.201447   1.000000
    2      -11.573696   1.000000
    3      -10.912588   1.000000
    4      -10.438771   1.000000
    5       -9.235996   1.000000
    6       -9.073793   1.000000
    7       -9.054036   1.000000
    8       -8.973621   1.000000
    9       -8.850539   1.000000
   10       -8.725101   1.000000
   11       -8.633526   1.000000
   12       -8.594078   1.000000
   13       -8.556628   1.000000
   14       -8.520523   1.000000
   15       -8.318898   1.000000
   16       -8.165453   1.000000
   17       -7.841524   1.000000
   18       -7.824891   1.000000
   19       -7.506903   1.000000
   20       -7.470581   1.000000
   21       -7.285209   1.000000
   22       -7.205301   1.000000
   23       -6.865130   1.000000
   24       -6.692547   1.000000
   25       -6.647970   1.000000
   26       -6.539448   1.000000
   27       -6.378941   1.000000
   28       -5.601645   1.000000
   29       -5.499710   1.000000
   30       -5.336302   1.000000
   31       -4.598530   1.000000
   32       -4.159022   1.000000
   33       -4.137808   1.000000
   34       -3.950866   1.000000
   35       -3.680343   1.000000
   36       -3.611701   1.000000
   37       -3.549442   1.000000
   38       -3.486886   1.000000
   39       -3.444035   1.000000
   40       -3.382980   1.000000
   41       -3.367665   1.000000
   42       -3.306725   1.000000
   43       -3.236434   1.000000
   44       -3.226503   1.000000
   45       -3.130172   1.000000
   46       -3.058938   1.000000
   47       -2.870313   1.000000
   48       -2.784862   1.000000
   49       -2.738388   1.000000
   50       -2.687943   1.000000
   51       -2.589892   1.000000
   52       -2.546616   1.000000
   53       -2.498770   1.000000
   54       -2.400286   1.000000
   55       -2.288110   1.000000
   56       -2.253448   1.000000
   57       -2.206555   1.000000
   58       -2.180601   1.000000
   59       -2.131199   1.000000
   60       -2.074441   1.000000
   61       -2.015259   1.000000
   62       -1.963039   1.000000
   63       -1.858644   1.000000
   64       -1.834400   1.000000
   65       -1.799301   1.000000
   66       -1.706736   1.000000
   67       -1.643270   1.000000
   68       -1.559347   1.000000
   69       -1.463523   1.000000
   70       -1.405150   1.000000
   71       -1.184370   1.000000
   72       -1.135309   1.000000
   73       -1.121058   1.000000
   74       -1.022828   1.000000
   75       -0.858124   1.000000
   76       -0.782506   1.000000
   77       -0.138989   1.000000
   78        0.017040   1.000000
   79        0.056335   1.000000
   80        0.258399   1.000000
   81        0.395532   1.000000
   82        0.508848   1.000000
   83        0.589136   1.000000
   84        0.624303   1.000000
   85        0.782326   1.000000
   86        0.825633   1.000000
   87        0.963601   1.000000
   88        1.426817   1.000000
   89        1.460557   1.000000
   90        1.642823   1.000002
   91        1.814416   1.000330
   92        1.873595   1.001340
   93        1.942918   1.005315
   94        1.988744   1.011178
   95        2.043629   1.022289
   96        2.128749   1.035277
   97        2.206504   0.990676
   98        2.383518   0.430356
   99        2.654438  -0.030336
  100        2.730582  -0.013752
  101        2.813656  -0.003505
  102        2.856106  -0.001472
  103        2.887038  -0.000732
  104        2.939296  -0.000198
  105        2.959571  -0.000115
  106        3.019062  -0.000020
  107        3.056681  -0.000006
  108        3.142608  -0.000000
  109        3.195117  -0.000000
  110        3.255938  -0.000000
  111        3.274518  -0.000000
  112        3.400525  -0.000000
  113        3.424729  -0.000000
  114        3.457282  -0.000000
  115        3.498084  -0.000000
  116        3.528763  -0.000000
  117        3.548524  -0.000000
  118        3.623722  -0.000000
  119        3.636886  -0.000000
  120        3.707894  -0.000000
  121        3.719240  -0.000000
  122        3.746111  -0.000000
  123        3.805508  -0.000000
  124        3.892905  -0.000000
  125        3.923146  -0.000000
  126        4.020469  -0.000000
  127        4.095305  -0.000000
  128        4.161403  -0.000000
  129        4.252481  -0.000000
  130        4.333947  -0.000000
  131        4.484847  -0.000000
  132        4.507810  -0.000000

  0.1111111E+00  0.1111111E+00  0.1262379E-14  0.2469136E-01
    1      -12.086162   1.000000
    2      -11.469590   1.000000
    3      -10.829410   1.000000
    4      -10.378001   1.000000
    5       -9.404839   1.000000
    6       -9.393030   1.000000
    7       -9.237927   1.000000
    8       -9.163448   1.000000
    9       -9.097114   1.000000
   10       -9.042654   1.000000
   11       -8.906783   1.000000
   12       -8.725144   1.000000
   13       -8.659963   1.000000
   14       -8.442587   1.000000
   15       -8.217428   1.000000
   16       -8.136609   1.000000
   17       -7.922892   1.000000
   18       -7.324072   1.000000
   19       -7.112172   1.000000
   20       -7.071747   1.000000
   21       -6.876893   1.000000
   22       -6.845307   1.000000
   23       -6.801848   1.000000
   24       -6.551262   1.000000
   25       -6.493603   1.000000
   26       -6.425748   1.000000
   27       -6.215723   1.000000
   28       -5.484090   1.000000
   29       -5.218201   1.000000
   30       -5.169638   1.000000
   31       -4.540718   1.000000
   32       -4.295867   1.000000
   33       -4.118561   1.000000
   34       -3.946384   1.000000
   35       -3.875657   1.000000
   36       -3.859441   1.000000
   37       -3.687912   1.000000
   38       -3.561662   1.000000
   39       -3.486463   1.000000
   40       -3.451816   1.000000
   41       -3.381727   1.000000
   42       -3.320368   1.000000
   43       -3.299092   1.000000
   44       -3.278639   1.000000
   45       -3.210372   1.000000
   46       -3.090188   1.000000
   47       -2.956813   1.000000
   48       -2.870979   1.000000
   49       -2.810741   1.000000
   50       -2.727313   1.000000
   51       -2.700638   1.000000
   52       -2.597766   1.000000
   53       -2.553022   1.000000
   54       -2.536208   1.000000
   55       -2.314305   1.000000
   56       -2.241817   1.000000
   57       -2.228028   1.000000
   58       -2.177402   1.000000
   59       -2.124005   1.000000
   60       -2.018054   1.000000
   61       -1.942042   1.000000
   62       -1.903588   1.000000
   63       -1.869718   1.000000
   64       -1.808483   1.000000
   65       -1.788083   1.000000
   66       -1.724599   1.000000
   67       -1.657490   1.000000
   68       -1.622275   1.000000
   69       -1.575524   1.000000
   70       -1.450771   1.000000
   71       -1.376125   1.000000
   72       -1.270431   1.000000
   73       -1.133117   1.000000
   74       -0.902029   1.000000
   75       -0.888941   1.000000
   76       -0.849560   1.000000
   77       -0.427286   1.000000
   78       -0.315016   1.000000
   79        0.046723   1.000000
   80        0.155895   1.000000
   81        0.319377   1.000000
   82        0.437137   1.000000
   83        0.480481   1.000000
   84        0.583579   1.000000
   85        0.637128   1.000000
   86        0.817403   1.000000
   87        0.855206   1.000000
   88        1.301761   1.000000
   89        1.373811   1.000000
   90        1.642707   1.000002
   91        1.809733   1.000293
   92        1.838278   1.000595
   93        1.913176   1.003051
   94        1.986282   1.010780
   95        2.110103   1.034952
   96        2.267001   0.870088
   97        2.416969   0.295693
   98        2.454297   0.166744