 running on   54 total cores
 distrk:  each k-point on   54 cores,    1 groups
 distr:  one band on    9 cores,    6 groups
 using from now: INCAR     
 vasp.5.4.4.18Apr17-6-g9f103f2a35 (build Dec  7 2020 12:43:57) complex           
 POSCAR found type information on POSCAR  Mo V  B  H 
 POSCAR found :  4 types and      54 ions
 scaLAPACK will be used
 LDA part: xc-table for Pade appr. of Perdew
 POSCAR, INCAR and KPOINTS ok, starting setup
 resort distribution
 resort distribution
 resort distribution
 resort distribution
 resort distribution
 resort distribution
 resort distribution
 resort distribution
 resort distribution
 resort distribution
 resort distribution
 resort distribution
 resort distribution
 resort distribution
 resort distribution
 resort distribution
 resort distribution
 resort distribution
 resort distribution
 resort distribution
 resort distribution
 resort distribution
 resort distribution
 resort distribution
 resort distribution
 resort distribution
 resort distribution
 resort distribution
 resort distribution
 resort distribution
 resort distribution
 resort distribution
 resort distribution
 resort distribution
 resort distribution
 resort distribution
 resort distribution
 resort distribution
 resort distribution
 resort distribution
 resort distribution
 resort distribution
 resort distribution
 resort distribution
 resort distribution
 resort distribution
 resort distribution
 resort distribution
 resort distribution
 resort distribution
 resort distribution
 resort distribution
 resort distribution
 resort distribution
 FFT: planning ...
 WAVECAR not read
 augmentation electrons   198.01889951832709     
 soft         electrons   0.0000000000000000     
 augmentation electrons   198.01889951832709     
 soft         electrons   0.0000000000000000     
 augmentation electrons   198.01889951832709     
 soft         electrons   0.0000000000000000     
 augmentation electrons   198.01889951832709     
 soft         electrons   0.0000000000000000     
 augmentation electrons   198.01889951832709     
 soft         electrons   0.0000000000000000     
 augmentation electrons   198.01889951832709     
 soft         electrons   0.0000000000000000     
 augmentation electrons   198.01889951832709     
 soft         electrons   0.0000000000000000     
 augmentation electrons   198.01889951832709     
 soft         electrons   0.0000000000000000     
 augmentation electrons   198.01889951832709     
 soft         electrons   0.0000000000000000     
 augmentation electrons   198.01889951832709     
 soft         electrons   0.0000000000000000     
 augmentation electrons   198.01889951832709     
 soft         electrons   0.0000000000000000     
 augmentation electrons   198.01889951832709     
 soft         electrons   0.0000000000000000     
 augmentation electrons   198.01889951832709     
 soft         electrons   0.0000000000000000     
 augmentation electrons   198.01889951832709     
 soft         electrons   0.0000000000000000     
 augmentation electrons   198.01889951832709     
 soft         electrons   0.0000000000000000     
 augmentation electrons   198.01889951832709     
 soft         electrons   0.0000000000000000     
 augmentation electrons   198.01889951832709     
 soft         electrons   0.0000000000000000     
 augmentation electrons   198.01889951832709     
 soft         electrons   0.0000000000000000     
 augmentation electrons   198.01889951832709     
 soft         electrons   0.0000000000000000     
 augmentation electrons   198.01889951832709     
 soft         electrons   0.0000000000000000     
 augmentation electrons   198.01889951832709     
 soft         electrons   0.0000000000000000     
 augmentation electrons   198.01889951832709     
 soft         electrons   0.0000000000000000     
 augmentation electrons   198.01889951832709     
 soft         electrons   0.0000000000000000     
 augmentation electrons   198.01889951832709     
 soft         electrons   0.0000000000000000     
 augmentation electrons   198.01889951832709     
 soft         electrons   0.0000000000000000     
 augmentation electrons   198.01889951832709     
 soft         electrons   0.0000000000000000     
 augmentation electrons   198.01889951832709     
 soft         electrons   0.0000000000000000     
 augmentation electrons   198.01889951832709     
 soft         electrons   0.0000000000000000     
 augmentation electrons   198.01889951832709     
 soft         electrons   0.0000000000000000     
 augmentation electrons   198.01889951832709     
 soft         electrons   0.0000000000000000     
 augmentation electrons   198.01889951832709     
 soft         electrons   0.0000000000000000     
 augmentation electrons   198.01889951832709     
 soft         electrons   0.0000000000000000     
 augmentation electrons   198.01889951832709     
 soft         electrons   0.0000000000000000     
 augmentation electrons   198.01889951832709     
 soft         electrons   0.0000000000000000     
 augmentation electrons   198.01889951832709     
 soft         electrons   0.0000000000000000     
 augmentation electrons   198.01889951832709     
 soft         electrons   0.0000000000000000     
 augmentation electrons   198.01889951832709     
 soft         electrons   0.0000000000000000     
 augmentation electrons   198.01889951832709     
 soft         electrons   0.0000000000000000     
 augmentation electrons   198.01889951832709     
 soft         electrons   0.0000000000000000     
 augmentation electrons   198.01889951832709     
 soft         electrons   0.0000000000000000     
 augmentation electrons   198.01889951832709     
 soft         electrons   0.0000000000000000     
 augmentation electrons   198.01889951832709     
 soft         electrons   0.0000000000000000     
 augmentation electrons   198.01889951832709     
 soft         electrons   0.0000000000000000     
 augmentation electrons   198.01889951832709     
 soft         electrons   0.0000000000000000     
 augmentation electrons   198.01889951832709     
 soft         electrons   0.0000000000000000     
 augmentation electrons   198.01889951832709     
 soft         electrons   0.0000000000000000     
 augmentation electrons   198.01889951832709     
 soft         electrons   0.0000000000000000     
 augmentation electrons   198.01889951832709     
 soft         electrons   0.0000000000000000     
 augmentation electrons   198.01889951832709     
 soft         electrons   0.0000000000000000     
 augmentation electrons   198.01889951832709     
 soft         electrons   0.0000000000000000     
 augmentation electrons   198.01889951832709     
 soft         electrons   0.0000000000000000     
 augmentation electrons   198.01889951832709     
 soft         electrons   0.0000000000000000     
 augmentation electrons   198.01889951832709     
 soft         electrons   0.0000000000000000     
 augmentation electrons   198.01889951832709     
 soft         electrons   0.0000000000000000     
 total        electrons   198.01889951832709     
 total        electrons   198.01889951832709     
 total        electrons   198.01889951832709     
 total        electrons   198.01889951832709     
 total        electrons   198.01889951832709     
 total        electrons   198.01889951832709     
 total        electrons   198.01889951832709     
 total        electrons   198.01889951832709     
 total        electrons   198.01889951832709     
 total        electrons   198.01889951832709     
 total        electrons   198.01889951832709     
 total        electrons   198.01889951832709     
 total        electrons   198.01889951832709     
 total        electrons   198.01889951832709     
 total        electrons   198.01889951832709     
 total        electrons   198.01889951832709     
 total        electrons   198.01889951832709     
 total        electrons   198.01889951832709     
 total        electrons   198.01889951832709     
 total        electrons   198.01889951832709     
 total        electrons   198.01889951832709     
 total        electrons   198.01889951832709     
 total        electrons   198.01889951832709     
 total        electrons   198.01889951832709     
 total        electrons   198.01889951832709     
 total        electrons   198.01889951832709     
 total        electrons   198.01889951832709     
 total        electrons   198.01889951832709     
 total        electrons   198.01889951832709     
 total        electrons   198.01889951832709     
 total        electrons   198.01889951832709     
 total        electrons   198.01889951832709     
 total        electrons   198.01889951832709     
 total        electrons   198.01889951832709     
 total        electrons   198.01889951832709     
 total        electrons   198.01889951832709     
 total        electrons   198.01889951832709     
 total        electrons   198.01889951832709     
 total        electrons   198.01889951832709     
 total        electrons   198.01889951832709     
 total        electrons   198.01889951832709     
 total        electrons   198.01889951832709     
 total        electrons   198.01889951832709     
 total        electrons   198.01889951832709     
 total        electrons   198.01889951832709     
 total        electrons   198.01889951832709     
 total        electrons   198.01889951832709     
 total        electrons   198.01889951832709     
 total        electrons   198.01889951832709     
 total        electrons   198.01889951832709     
 total        electrons   198.01889951832709     
 total        electrons   198.01889951832709     
 total        electrons   198.01889951832709     
 total        electrons   198.01889951832709     
 augmentation electrons   637.50483029801512     
 soft         electrons   0.0000000000000000     
 total        electrons   637.50483029801512     
 augmentation electrons   637.50483029801512     
 soft         electrons   0.0000000000000000     
 total        electrons   637.50483029801512     
 augmentation electrons   637.50483029801512     
 soft         electrons   0.0000000000000000     
 total        electrons   637.50483029801512     
 augmentation electrons   637.50483029801512     
 soft         electrons   0.0000000000000000     
 augmentation electrons   637.50483029801512     
 soft         electrons   0.0000000000000000     
 augmentation electrons   637.50483029801512     
 soft         electrons   0.0000000000000000     
 total        electrons   637.50483029801512     
 augmentation electrons   637.50483029801512     
 soft         electrons   0.0000000000000000     
 total        electrons   637.50483029801512     
 augmentation electrons   637.50483029801512     
 soft         electrons   0.0000000000000000     
 total        electrons   637.50483029801512     
 augmentation electrons   637.50483029801512     
 soft         electrons   0.0000000000000000     
 total        electrons   637.50483029801512     
 augmentation electrons   637.50483029801512     
 soft         electrons   0.0000000000000000     
 total        electrons   637.50483029801512     
 augmentation electrons   637.50483029801512     
 soft         electrons   0.0000000000000000     
 total        electrons   637.50483029801512     
 augmentation electrons   637.50483029801512     
 soft         electrons   0.0000000000000000     
 total        electrons   637.50483029801512     
 augmentation electrons   637.50483029801512     
 soft         electrons   0.0000000000000000     
 total        electrons   637.50483029801512     
 augmentation electrons   637.50483029801512     
 soft         electrons   0.0000000000000000     
 total        electrons   637.50483029801512     
 augmentation electrons   637.50483029801512     
 soft         electrons   0.0000000000000000     
 total        electrons   637.50483029801512     
 augmentation electrons   637.50483029801512     
 soft         electrons   0.0000000000000000     
 total        electrons   637.50483029801512     
 augmentation electrons   637.50483029801512     
 soft         electrons   0.0000000000000000     
 total        electrons   637.50483029801512     
 augmentation electrons   637.50483029801512     
 soft         electrons   0.0000000000000000     
 total        electrons   637.50483029801512     
 augmentation electrons   637.50483029801512     
 soft         electrons   0.0000000000000000     
 total        electrons   637.50483029801512     
 augmentation electrons   637.50483029801512     
 soft         electrons   0.0000000000000000     
 augmentation electrons   637.50483029801512     
 soft         electrons   0.0000000000000000     
 total        electrons   637.50483029801512     
 augmentation electrons   637.50483029801512     
 soft         electrons   0.0000000000000000     
 total        electrons   637.50483029801512     
 augmentation electrons   637.50483029801512     
 soft         electrons   0.0000000000000000     
 total        electrons   637.50483029801512     
 augmentation electrons   637.50483029801512     
 soft         electrons   0.0000000000000000     
 total        electrons   637.50483029801512     
 augmentation electrons   637.50483029801512     
 soft         electrons   0.0000000000000000     
 total        electrons   637.50483029801512     
 augmentation electrons   637.50483029801512     
 soft         electrons   0.0000000000000000     
 total        electrons   637.50483029801512     
 augmentation electrons   637.50483029801512     
 soft         electrons   0.0000000000000000     
 total        electrons   637.50483029801512     
 augmentation electrons   637.50483029801512     
 soft         electrons   0.0000000000000000     
 total        electrons   637.50483029801512     
 augmentation electrons   637.50483029801512     
 soft         electrons   0.0000000000000000     
 augmentation electrons   637.50483029801512     
 soft         electrons   0.0000000000000000     
 total        electrons   637.50483029801512     
 augmentation electrons   637.50483029801512     
 soft         electrons   0.0000000000000000     
 total        electrons   637.50483029801512     
 augmentation electrons   637.50483029801512     
 soft         electrons   0.0000000000000000     
 total        electrons   637.50483029801512     
 augmentation electrons   637.50483029801512     
 soft         electrons   0.0000000000000000     
 total        electrons   637.50483029801512     
 augmentation electrons   637.50483029801512     
 soft         electrons   0.0000000000000000     
 total        electrons   637.50483029801512     
 augmentation electrons   637.50483029801512     
 soft         electrons   0.0000000000000000     
 augmentation electrons   637.50483029801512     
 soft         electrons   0.0000000000000000     
 augmentation electrons   637.50483029801512     
 soft         electrons   0.0000000000000000     
 total        electrons   637.50483029801512     
 augmentation electrons   637.50483029801512     
 soft         electrons   0.0000000000000000     
 total        electrons   637.50483029801512     
 augmentation electrons   637.50483029801512     
 soft         electrons   0.0000000000000000     
 total        electrons   637.50483029801512     
 augmentation electrons   637.50483029801512     
 soft         electrons   0.0000000000000000     
 total        electrons   637.50483029801512     
 augmentation electrons   637.50483029801512     
 soft         electrons   0.0000000000000000     
 total        electrons   637.50483029801512     
 augmentation electrons   637.50483029801512     
 soft         electrons   0.0000000000000000     
 total        electrons   637.50483029801512     
 augmentation electrons   637.50483029801512     
 soft         electrons   0.0000000000000000     
 total        electrons   637.50483029801512     
 augmentation electrons   637.50483029801512     
 soft         electrons   0.0000000000000000     
 total        electrons   637.50483029801512     
 augmentation electrons   637.50483029801512     
 soft         electrons   0.0000000000000000     
 total        electrons   637.50483029801512     
 augmentation electrons   637.50483029801512     
 soft         electrons   0.0000000000000000     
 total        electrons   637.50483029801512     
 augmentation electrons   637.50483029801512     
 soft         electrons   0.0000000000000000     
 total        electrons   637.50483029801512     
 augmentation electrons   637.50483029801512     
 soft         electrons   0.0000000000000000     
 total        electrons   637.50483029801512     
 augmentation electrons   637.50483029801512     
 soft         electrons   0.0000000000000000     
 total        electrons   637.50483029801512     
 augmentation electrons   637.50483029801512     
 soft         electrons   0.0000000000000000     
 total        electrons   637.50483029801512     
 augmentation electrons   637.50483029801512     
 soft         electrons   0.0000000000000000     
 total        electrons   637.50483029801512     
 augmentation electrons   637.50483029801512     
 soft         electrons   0.0000000000000000     
 total        electrons   637.50483029801512     
 augmentation electrons   637.50483029801512     
 soft         electrons   0.0000000000000000     
 total        electrons   637.50483029801512     
 augmentation electrons   637.50483029801512     
 soft         electrons   0.0000000000000000     
 total        electrons   637.50483029801512     
 total        electrons   637.50483029801512     
 total        electrons   637.50483029801512     
 total        electrons   637.50483029801512     
 total        electrons   637.50483029801512     
 total        electrons   637.50483029801512     
 total        electrons   637.50483029801512     
 entering main loop
       N       E                     dE             d eps       ncg     rms          rms(c)
DAV:   1     0.175445378575E+04    0.17545E+04   -0.73858E+04 10824   0.129E+03
DAV:   2    -0.145487463548E+03   -0.18999E+04   -0.17379E+04 11496   0.334E+02
DAV:   3    -0.464425920107E+03   -0.31894E+03   -0.30281E+03 15924   0.149E+02
DAV:   4    -0.488303889322E+03   -0.23878E+02   -0.22954E+02 17340   0.426E+01
DAV:   5    -0.489505438554E+03   -0.12015E+01   -0.11733E+01 18336   0.832E+00    0.117E+02
RMM:   6    -0.470660054094E+03    0.18845E+02   -0.79679E+02 14675   0.850E+01    0.684E+01
RMM:   7    -0.693155899357E+03   -0.22250E+03   -0.59184E+02 15833   0.798E+01    0.615E+01
RMM:   8    -0.566772049528E+03    0.12638E+03   -0.28323E+02 15941   0.371E+01    0.470E+01
RMM:   9    -0.447320167175E+03    0.11945E+03   -0.49725E+01 12768   0.274E+01    0.329E+01
RMM:  10    -0.421266791702E+03    0.26053E+02   -0.28046E+01 12579   0.192E+01    0.222E+01
RMM:  11    -0.420770112264E+03    0.49668E+00   -0.36410E+01 14130   0.144E+01    0.191E+01
RMM:  12    -0.416783055672E+03    0.39871E+01   -0.45478E+00 14353   0.517E+00    0.148E+01
RMM:  13    -0.417414921592E+03   -0.63187E+00   -0.95686E-01 13906   0.214E+00    0.147E+01
RMM:  14    -0.417113152940E+03    0.30177E+00   -0.35829E-01 12061   0.185E+00    0.130E+01
RMM:  15    -0.416109791751E+03    0.10034E+01   -0.48384E+00 10835   0.878E+00    0.899E+00
RMM:  16    -0.416458789503E+03   -0.34900E+00   -0.49318E+00 12888   0.535E+00    0.848E+00
RMM:  17    -0.415979327378E+03    0.47946E+00   -0.41169E-01 13459   0.170E+00    0.530E+00
RMM:  18    -0.416010454168E+03   -0.31127E-01   -0.26911E-01 13508   0.117E+00    0.587E+00
RMM:  19    -0.415894177791E+03    0.11628E+00   -0.12578E-01 12030   0.122E+00    0.471E+00
RMM:  20    -0.415691549052E+03    0.20263E+00   -0.19807E-01 10950   0.166E+00    0.172E+00
RMM:  21    -0.415690881502E+03    0.66755E-03   -0.17187E-01 14215   0.734E-01    0.148E+00
RMM:  22    -0.415685069356E+03    0.58121E-02   -0.19898E-02 13481   0.390E-01    0.119E+00
RMM:  23    -0.415677189621E+03    0.78797E-02   -0.10820E-02 14197   0.233E-01    0.798E-01
RMM:  24    -0.415671638625E+03    0.55510E-02   -0.13317E-02 13821   0.291E-01    0.311E-01
RMM:  25    -0.415672944021E+03   -0.13054E-02   -0.24518E-03 11436   0.175E-01    0.470E-01
RMM:  26    -0.415671155489E+03    0.17885E-02   -0.35217E-03 12182   0.171E-01    0.123E-01
RMM:  27    -0.415671939463E+03   -0.78397E-03   -0.45504E-03 13440   0.151E-01    0.245E-01
RMM:  28    -0.415671901054E+03    0.38409E-04   -0.65492E-04 13582   0.630E-02    0.164E-01
RMM:  29    -0.415672146108E+03   -0.24505E-03   -0.29262E-04 13176   0.439E-02    0.100E-01
RMM:  30    -0.415672360669E+03   -0.21456E-03   -0.11782E-04 13248   0.269E-02    0.485E-02
RMM:  31    -0.415672629403E+03   -0.26873E-03   -0.69275E-05 13660   0.167E-02    0.253E-02
RMM:  32    -0.415673098500E+03   -0.46910E-03   -0.81389E-05 11308   0.320E-02    0.576E-02
RMM:  33    -0.415673287070E+03   -0.18857E-03   -0.84535E-05 10865   0.351E-02    0.250E-02
RMM:  34    -0.415673379775E+03   -0.92705E-04   -0.26356E-05  9991   0.806E-03    0.169E-02
RMM:  35    -0.415673463015E+03   -0.83240E-04   -0.70611E-06  8477   0.842E-03    0.712E-03
RMM:  36    -0.415673474887E+03   -0.11873E-04   -0.17439E-06  7520   0.303E-03    0.334E-03
RMM:  37    -0.415673527697E+03   -0.52810E-04   -0.38484E-06  7881   0.401E-03    0.530E-03
RMM:  38    -0.415673542751E+03   -0.15054E-04   -0.16736E-06  7123   0.335E-03    0.234E-03
RMM:  39    -0.415673547587E+03   -0.48352E-05   -0.85274E-07  6448   0.222E-03    0.395E-03
RMM:  40    -0.415673553401E+03   -0.58148E-05   -0.57855E-07  5998   0.198E-03    0.322E-03
RMM:  41    -0.415673556054E+03   -0.26523E-05   -0.39089E-07  5718   0.159E-03    0.172E-03
RMM:  42    -0.415673556665E+03   -0.61085E-06   -0.18527E-07  5062   0.134E-03
   1 F= -.41567356E+03 E0= -.41567721E+03  d E =-.415674E+03
 curvature:   0.00 expect dE= 0.000E+00 dE for cont linesearch  0.000E+00
 trial: gam= 0.00000 g(F)=  0.169E+02 g(S)=  0.000E+00 ort = 0.000E+00 (trialstep = 0.100E+01)
 search vector abs. value=  0.169E+02
 bond charge predicted
       N       E                     dE             d eps       ncg     rms          rms(c)
DAV:   1    -0.414699065890E+03    0.97449E+00   -0.48022E+02 11088   0.533E+01    0.884E+00
RMM:   2    -0.416935062073E+03   -0.22360E+01   -0.30159E+01 14559   0.144E+01    0.100E+01
RMM:   3    -0.417489892683E+03   -0.55483E+00   -0.30266E+00 12184   0.630E+00    0.108E+01
RMM:   4    -0.416729429473E+03    0.76046E+00   -0.13433E+00 14605   0.270E+00    0.673E+00
RMM:   5    -0.416845034896E+03   -0.11561E+00   -0.21854E+00 12938   0.427E+00    0.921E+00
RMM:   6    -0.416265753840E+03    0.57928E+00   -0.12966E+00 12135   0.411E+00    0.554E+00
RMM:   7    -0.415825222238E+03    0.44053E+00   -0.54569E-01 11960   0.271E+00    0.239E+00
RMM:   8    -0.415785321992E+03    0.39900E-01   -0.17492E-01 12643   0.139E+00    0.191E+00
RMM:   9    -0.415757341587E+03    0.27980E-01   -0.75730E-02 12149   0.996E-01    0.120E+00
RMM:  10    -0.415748426395E+03    0.89152E-02   -0.35445E-02 12573   0.589E-01    0.708E-01
RMM:  11    -0.415745904904E+03    0.25215E-02   -0.18394E-02 13770   0.325E-01    0.429E-01
RMM:  12    -0.415745137659E+03    0.76724E-03   -0.95123E-03 13636   0.257E-01    0.325E-01
RMM:  13    -0.415744151170E+03    0.98649E-03   -0.34770E-03 12544   0.187E-01    0.136E-01
RMM:  14    -0.415744123210E+03    0.27960E-04   -0.17819E-03 14154   0.845E-02    0.864E-02
RMM:  15    -0.415744132394E+03   -0.91843E-05   -0.57428E-04 14103   0.460E-02    0.311E-02
RMM:  16    -0.415744240127E+03   -0.10773E-03   -0.13170E-04 13882   0.226E-02    0.163E-02
RMM:  17    -0.415744300390E+03   -0.60264E-04   -0.45828E-05 12111   0.103E-02    0.103E-02
RMM:  18    -0.415744358822E+03   -0.58432E-04   -0.14964E-05 10433   0.862E-03    0.686E-03
RMM:  19    -0.415744407443E+03   -0.48621E-04   -0.89606E-06  9454   0.574E-03    0.435E-03
RMM:  20    -0.415744449279E+03   -0.41836E-04   -0.81508E-06  8936   0.562E-03    0.334E-03
RMM:  21    -0.415744497246E+03   -0.47967E-04   -0.13537E-05  9760   0.609E-03    0.264E-03
RMM:  22    -0.415744519304E+03   -0.22059E-04   -0.78915E-06  8631   0.572E-03    0.197E-03
RMM:  23    -0.415744526306E+03   -0.70022E-05   -0.30082E-06  7628   0.363E-03    0.135E-03
RMM:  24    -0.415744529504E+03   -0.31975E-05   -0.12476E-06  6621   0.308E-03    0.909E-04
RMM:  25    -0.415744530599E+03   -0.10949E-05   -0.55141E-07  5968   0.217E-03    0.637E-04
RMM:  26    -0.415744531290E+03   -0.69097E-06   -0.35503E-07  5608   0.173E-03
   2 F= -.41574453E+03 E0= -.41574952E+03  d E =-.709746E-01
 trial-energy change:   -0.070975  1 .order   -5.604981  -16.852138    5.642177
 step:   0.3961(harm=  0.7492)  dis= 0.17612  next Energy=  -418.667121 (dE=-0.299E+01)
 bond charge predicted
       N       E                     dE             d eps       ncg     rms          rms(c)
DAV:   1    -0.417842077003E+03   -0.20975E+01   -0.17645E+02 10824   0.322E+01    0.520E+00
RMM:   2    -0.419278856560E+03   -0.14368E+01   -0.77806E+00 13136   0.851E+00    0.994E+00
RMM:   3    -0.418516904611E+03    0.76195E+00   -0.11154E+00 13497   0.342E+00    0.607E+00
RMM:   4    -0.418189680596E+03    0.32722E+00   -0.73057E-01 14187   0.204E+00    0.475E+00
RMM:   5    -0.418311493002E+03   -0.12181E+00   -0.62549E-01 12269   0.262E+00    0.503E+00
RMM:   6    -0.417966559058E+03    0.34493E+00   -0.30704E-01 12206   0.188E+00    0.177E+00
RMM:   7    -0.418027291731E+03   -0.60733E-01   -0.17476E-01 12136   0.147E+00    0.269E+00
RMM:   8    -0.417935698796E+03    0.91593E-01   -0.68392E-02 11631   0.104E+00    0.663E-01
RMM:   9    -0.417932435627E+03    0.32632E-02   -0.20889E-02 13243   0.427E-01    0.486E-01
RMM:  10    -0.417930998772E+03    0.14369E-02   -0.76241E-03 13503   0.248E-01    0.291E-01
RMM:  11    -0.417931042644E+03   -0.43873E-04   -0.46616E-03 12903   0.186E-01    0.260E-01
RMM:  12    -0.417930534044E+03    0.50860E-03   -0.22816E-03 13189   0.130E-01    0.166E-01
RMM:  13    -0.417930192549E+03    0.34149E-03   -0.79386E-04 12574   0.810E-02    0.562E-02
RMM:  14    -0.417930217285E+03   -0.24736E-04   -0.39845E-04 14349   0.402E-02    0.424E-02
RMM:  15    -0.417930206889E+03    0.10396E-04   -0.12231E-04 13930   0.228E-02    0.162E-02
RMM:  16    -0.417930229490E+03   -0.22601E-04   -0.37478E-05 11727   0.908E-03    0.110E-02
RMM:  17    -0.417930252757E+03   -0.23268E-04   -0.76659E-06  9240   0.688E-03    0.555E-03
RMM:  18    -0.417930282090E+03   -0.29333E-04   -0.23720E-06  7564   0.473E-03    0.355E-03
RMM:  19    -0.417930302118E+03   -0.20028E-04   -0.15165E-06  6973   0.389E-03    0.268E-03
RMM:  20    -0.417930345682E+03   -0.43563E-04   -0.51311E-06  8327   0.399E-03    0.233E-03
RMM:  21    -0.417930366778E+03   -0.21097E-04   -0.22789E-06  7435   0.415E-03    0.176E-03
RMM:  22    -0.417930392811E+03   -0.26033E-04   -0.44032E-06  8000   0.329E-03    0.109E-03
RMM:  23    -0.417930400301E+03   -0.74904E-05   -0.93610E-07  6446   0.346E-03    0.677E-04
RMM:  24    -0.417930407406E+03   -0.71047E-05   -0.85667E-07  6030   0.169E-03    0.392E-04
RMM:  25    -0.417930412298E+03   -0.48918E-05   -0.39062E-07  5642   0.192E-03    0.321E-04
RMM:  26    -0.417930414290E+03   -0.19923E-05   -0.24412E-07  4078   0.117E-03    0.208E-04
RMM:  27    -0.417930416845E+03   -0.25547E-05   -0.19902E-07  4149   0.119E-03    0.111E-04
RMM:  28    -0.417930417846E+03   -0.10010E-05   -0.13725E-07  3834   0.100E-03    0.861E-05
RMM:  29    -0.417930418229E+03   -0.38251E-06   -0.87396E-08  3686   0.903E-04
   3 F= -.41793042E+03 E0= -.41793458E+03  d E =-.225686E+01
 curvature:   0.37 expect dE= 0.389E+00 dE for cont linesearch  0.111E-01
 ZBRENT: interpolating
 opt :   0.3800  next Energy=  -417.936174 (dE=-0.226E+01)
 bond charge predicted
       N       E                     dE             d eps       ncg     rms          rms(c)
DAV:   1    -0.417939676732E+03   -0.92589E-02   -0.15104E-01 11652   0.924E-01    0.149E-01
RMM:   2    -0.417939900805E+03   -0.22407E-03   -0.52890E-03 13282   0.215E-01    0.150E-01
RMM:   3    -0.417940191839E+03   -0.29103E-03   -0.98064E-04 12217   0.118E-01    0.199E-01
RMM:   4    -0.417940432195E+03   -0.24036E-03   -0.64645E-04 14198   0.644E-02    0.168E-01
RMM:   5    -0.417939923763E+03    0.50843E-03   -0.55601E-04 13012   0.661E-02    0.123E-01
RMM:   6    -0.417939739782E+03    0.18398E-03   -0.32259E-04 12765   0.555E-02    0.703E-02
RMM:   7    -0.417939713092E+03    0.26690E-04   -0.13419E-04 12511   0.370E-02    0.572E-02
RMM:   8    -0.417939670937E+03    0.42155E-04   -0.39775E-05 11681   0.227E-02    0.166E-02
RMM:   9    -0.417939670960E+03   -0.22448E-07   -0.16264E-05 10623   0.124E-02    0.152E-02
RMM:  10    -0.417939669023E+03    0.19370E-05   -0.58039E-06  8155   0.832E-03    0.927E-03
RMM:  11    -0.417939667986E+03    0.10366E-05   -0.23444E-06  7436   0.550E-03    0.376E-03
RMM:  12    -0.417939667974E+03    0.11618E-07   -0.10734E-06  6732   0.372E-03
   4 F= -.41793967E+03 E0= -.41794376E+03  d E =-.226611E+01
 curvature:  -0.19 expect dE=-0.191E+00 dE for cont linesearch -0.209E-02
 ZBRENT: interpolating
 opt :   0.3562  next Energy=  -417.944916 (dE=-0.227E+01)
 bond charge predicted
       N       E                     dE             d eps       ncg     rms          rms(c)
DAV:   1    -0.417944648895E+03   -0.49809E-02   -0.33248E-01 11508   0.137E+00    0.223E-01
RMM:   2    -0.417945091213E+03   -0.44232E-03   -0.11596E-02 13100   0.321E-01    0.218E-01
RMM:   3    -0.417945559192E+03   -0.46798E-03   -0.22614E-03 12146   0.179E-01    0.284E-01
RMM:   4    -0.417946488261E+03   -0.92907E-03   -0.14724E-03 13766   0.107E-01    0.269E-01
RMM:   5    -0.417945227443E+03    0.12608E-02   -0.11548E-03 13607   0.860E-02    0.182E-01
RMM:   6    -0.417944745309E+03    0.48213E-03   -0.72298E-04 12830   0.812E-02    0.103E-01
RMM:   7    -0.417944694919E+03    0.50389E-04   -0.30688E-04 12613   0.548E-02    0.875E-02
RMM:   8    -0.417944598704E+03    0.96216E-04   -0.92198E-05 11940   0.343E-02    0.257E-02
RMM:   9    -0.417944598268E+03    0.43553E-06   -0.39382E-05 12295   0.188E-02    0.227E-02
RMM:  10    -0.417944594057E+03    0.42111E-05   -0.13668E-05  9924   0.120E-02    0.138E-02
RMM:  11    -0.417944591724E+03    0.23334E-05   -0.58586E-06  8236   0.660E-03    0.564E-03
RMM:  12    -0.417944591717E+03    0.66502E-08   -0.21693E-06  7426   0.524E-03
   5 F= -.41794459E+03 E0= -.41794857E+03  d E =-.227104E+01
 curvature:  -0.48 expect dE=-0.452E+00 dE for cont linesearch -0.171E-04
 trial: gam= 0.05469 g(F)=  0.946E+00 g(S)=  0.000E+00 ort = 0.246E-01 (trialstep = 0.871E+00)
 search vector abs. value=  0.999E+00
 bond charge predicted
       N       E                     dE             d eps       ncg     rms          rms(c)
DAV:   1    -0.418439119811E+03   -0.49453E+00   -0.29699E+01 10824   0.135E+01    0.167E+00
RMM:   2    -0.418541264699E+03   -0.10214E+00   -0.83525E-01 13572   0.284E+00    0.214E+00
RMM:   3    -0.418533643938E+03    0.76208E-02   -0.15500E-01 14230   0.106E+00    0.218E+00
RMM:   4    -0.418495883683E+03    0.37760E-01   -0.11712E-01 13392   0.973E-01    0.207E+00
RMM:   5    -0.418469722365E+03    0.26161E-01   -0.90010E-02 12636   0.942E-01    0.151E+00
RMM:   6    -0.418447362126E+03    0.22360E-01   -0.44471E-02 12240   0.711E-01    0.850E-01
RMM:   7    -0.418442485552E+03    0.48766E-02   -0.18870E-02 12317   0.451E-01    0.521E-01
RMM:   8    -0.418439253932E+03    0.32316E-02   -0.53767E-03 12409   0.245E-01    0.212E-01
RMM:   9    -0.418438927450E+03    0.32648E-03   -0.25324E-03 13105   0.150E-01    0.149E-01
RMM:  10    -0.418438629273E+03    0.29818E-03   -0.11670E-03 13393   0.960E-02    0.868E-02
RMM:  11    -0.418438584663E+03    0.44610E-04   -0.45950E-04 12934   0.642E-02    0.646E-02
RMM:  12    -0.418438610828E+03   -0.26165E-04   -0.27872E-04 13163   0.400E-02    0.666E-02
RMM:  13    -0.418438559497E+03    0.51331E-04   -0.90813E-05 12436   0.264E-02    0.193E-02
RMM:  14    -0.418438562573E+03   -0.30761E-05   -0.50749E-05 12824   0.120E-02    0.103E-02
RMM:  15    -0.418438566960E+03   -0.43865E-05   -0.10277E-05  9761   0.794E-03    0.343E-03
RMM:  16    -0.418438573045E+03   -0.60851E-05   -0.25155E-06  7613   0.430E-03    0.259E-03
RMM:  17    -0.418438577998E+03   -0.49535E-05   -0.90605E-07  6633   0.354E-03    0.147E-03
RMM:  18    -0.418438585670E+03   -0.76712E-05   -0.91179E-07  6602   0.267E-03    0.106E-03
RMM:  19    -0.418438589962E+03   -0.42921E-05   -0.53012E-07  6480   0.245E-03    0.766E-04
RMM:  20    -0.418438596885E+03   -0.69234E-05   -0.79396E-07  6267   0.191E-03    0.552E-04
RMM:  21    -0.418438602499E+03   -0.56142E-05   -0.72965E-07  6208   0.211E-03    0.490E-04
RMM:  22    -0.418438605832E+03   -0.33322E-05   -0.65319E-07  5804   0.180E-03    0.271E-04
RMM:  23    -0.418438607704E+03   -0.18720E-05   -0.41536E-07  5320   0.175E-03    0.216E-04
RMM:  24    -0.418438608536E+03   -0.83241E-06   -0.25937E-07  4504   0.132E-03
   6 F= -.41843861E+03 E0= -.41844249E+03  d E =-.494017E+00
 trial-energy change:   -0.494017  1 .order   -0.494485   -0.825567   -0.163403
 step:   1.0862(harm=  1.0862)  dis= 0.08706  next Energy=  -418.459238 (dE=-0.515E+00)
 bond charge predicted
       N       E                     dE             d eps       ncg     rms          rms(c)
DAV:   1    -0.418458783767E+03   -0.20176E-01   -0.18232E+00 10848   0.332E+00    0.404E-01
RMM:   2    -0.418462202819E+03   -0.34191E-02   -0.48049E-02 13043   0.694E-01    0.429E-01
RMM:   3    -0.418465269504E+03   -0.30667E-02   -0.10353E-02 14182   0.271E-01    0.551E-01
RMM:   4    -0.418462520325E+03    0.27492E-02   -0.64226E-03 13632   0.222E-01    0.517E-01
RMM:   5    -0.418460129379E+03    0.23909E-02   -0.49773E-03 12481   0.224E-01    0.326E-01
RMM:   6    -0.418459306590E+03    0.82279E-03   -0.25087E-03 12296   0.167E-01    0.219E-01
RMM:   7    -0.418458963356E+03    0.34323E-03   -0.11002E-03 12228   0.110E-01    0.132E-01
RMM:   8    -0.418458746402E+03    0.21695E-03   -0.33189E-04 12474   0.593E-02    0.463E-02
RMM:   9    -0.418458739049E+03    0.73531E-05   -0.15391E-04 13263   0.350E-02    0.357E-02
RMM:  10    -0.418458716393E+03    0.22655E-04   -0.58618E-05 12815   0.218E-02    0.160E-02
RMM:  11    -0.418458716465E+03   -0.71901E-07   -0.25274E-05 10880   0.123E-02    0.120E-02
RMM:  12    -0.418458716433E+03    0.32544E-07   -0.90849E-06  8669   0.747E-03
   7 F= -.41845872E+03 E0= -.41846274E+03  d E =-.514125E+00
 curvature:  -0.57 expect dE=-0.630E-01 dE for cont linesearch -0.776E-06
 trial: gam= 0.12740 g(F)=  0.110E+00 g(S)=  0.000E+00 ort =-0.116E-02 (trialstep = 0.914E+00)
 search vector abs. value=  0.126E+00
 bond charge predicted
       N       E                     dE             d eps       ncg     rms          rms(c)
DAV:   1    -0.418522199385E+03   -0.63483E-01   -0.39540E+00 10824   0.510E+00    0.885E-01
RMM:   2    -0.418576494908E+03   -0.54296E-01   -0.15986E-01 12354   0.144E+00    0.191E+00
RMM:   3    -0.418539627981E+03    0.36867E-01   -0.29235E-02 12892   0.613E-01    0.923E-01
RMM:   4    -0.418544442114E+03   -0.48141E-02   -0.28683E-02 13829   0.434E-01    0.114E+00
RMM:   5    -0.418529798745E+03    0.14643E-01   -0.16000E-02 12526   0.399E-01    0.470E-01
RMM:   6    -0.418528624886E+03    0.11739E-02   -0.10245E-02 12851   0.301E-01    0.353E-01
RMM:   7    -0.418527894538E+03    0.73035E-03   -0.45281E-03 12155   0.238E-01    0.312E-01
RMM:   8    -0.418526800148E+03    0.10944E-02   -0.14964E-03 12159   0.137E-01    0.117E-01
RMM:   9    -0.418526585549E+03    0.21460E-03   -0.50057E-04 13899   0.548E-02    0.458E-02
RMM:  10    -0.418526591327E+03   -0.57788E-05   -0.18556E-04 12911   0.392E-02    0.468E-02
RMM:  11    -0.418526567519E+03    0.23808E-04   -0.71520E-05 12597   0.260E-02    0.192E-02
RMM:  12    -0.418526568704E+03   -0.11842E-05   -0.40135E-05 12207   0.136E-02    0.170E-02
RMM:  13    -0.418526565436E+03    0.32677E-05   -0.11479E-05  9148   0.971E-03    0.718E-03
RMM:  14    -0.418526567163E+03   -0.17268E-05   -0.58814E-06  8943   0.522E-03    0.374E-03
RMM:  15    -0.418526569508E+03   -0.23455E-05   -0.12378E-06  6688   0.412E-03    0.205E-03
RMM:  16    -0.418526571999E+03   -0.24910E-05   -0.72716E-07  6539   0.304E-03    0.117E-03
RMM:  17    -0.418526573474E+03   -0.14749E-05   -0.39398E-07  6476   0.241E-03    0.690E-04
RMM:  18    -0.418526576084E+03   -0.26095E-05   -0.35755E-07  6275   0.171E-03    0.611E-04
RMM:  19    -0.418526578570E+03   -0.24867E-05   -0.31691E-07  6033   0.168E-03    0.511E-04
RMM:  20    -0.418526579934E+03   -0.13639E-05   -0.22148E-07  5436   0.130E-03    0.398E-04
RMM:  21    -0.418526581729E+03   -0.17945E-05   -0.22111E-07  4932   0.126E-03    0.423E-04
RMM:  22    -0.418526582989E+03   -0.12606E-05   -0.22194E-07  4988   0.116E-03    0.204E-04
RMM:  23    -0.418526583512E+03   -0.52265E-06   -0.13815E-07  4407   0.112E-03
   8 F= -.41852658E+03 E0= -.41853053E+03  d E =-.678671E-01
 trial-energy change:   -0.067867  1 .order   -0.067998   -0.100383   -0.035613
 step:   1.4169(harm=  1.4169)  dis= 0.04785  next Energy=  -418.536505 (dE=-0.778E-01)
 bond charge predicted
       N       E                     dE             d eps       ncg     rms          rms(c)
DAV:   1    -0.418535239521E+03   -0.86565E-02   -0.11944E+00 10848   0.279E+00    0.480E-01
RMM:   2    -0.418549532793E+03   -0.14293E-01   -0.46260E-02 12392   0.773E-01    0.971E-01
RMM:   3    -0.418540472422E+03    0.90604E-02   -0.86756E-03 12904   0.333E-01    0.502E-01
RMM:   4    -0.418542014336E+03   -0.15419E-02   -0.84857E-03 13984   0.230E-01    0.616E-01
RMM:   5    -0.418537449167E+03    0.45652E-02   -0.48927E-03 12520   0.221E-01    0.257E-01
RMM:   6    -0.418537106992E+03    0.34217E-03   -0.30379E-03 12858   0.164E-01    0.192E-01
RMM:   7    -0.418536952283E+03    0.15471E-03   -0.13798E-03 12079   0.132E-01    0.181E-01
RMM:   8    -0.418536580279E+03    0.37200E-03   -0.44962E-04 12154   0.751E-02    0.603E-02
RMM:   9    -0.418536520701E+03    0.59577E-04   -0.15012E-04 13843   0.292E-02    0.237E-02
RMM:  10    -0.418536522708E+03   -0.20072E-05   -0.51616E-05 12086   0.212E-02    0.258E-02
RMM:  11    -0.418536515386E+03    0.73228E-05   -0.19899E-05 10849   0.140E-02    0.988E-03
RMM:  12    -0.418536515549E+03   -0.16351E-06   -0.11019E-05  9305   0.787E-03    0.891E-03
RMM:  13    -0.418536514602E+03    0.94664E-06   -0.33743E-06  7745   0.660E-03
   9 F= -.41853651E+03 E0= -.41854041E+03  d E =-.777982E-01
 curvature:  -0.81 expect dE=-0.535E-01 dE for cont linesearch -0.218E-05
 trial: gam= 0.58397 g(F)=  0.659E-01 g(S)=  0.000E+00 ort = 0.581E-03 (trialstep = 0.101E+01)
 search vector abs. value=  0.110E+00
 bond charge predicted
       N       E                     dE             d eps       ncg     rms          rms(c)
DAV:   1    -0.418579505040E+03   -0.42989E-01   -0.43638E+00 10824   0.532E+00    0.911E-01
RMM:   2    -0.418619377878E+03   -0.39873E-01   -0.15107E-01 12286   0.143E+00    0.183E+00
RMM:   3    -0.418595600250E+03    0.23778E-01   -0.31179E-02 12871   0.616E-01    0.101E+00
RMM:   4    -0.418596948304E+03   -0.13481E-02   -0.24379E-02 14101   0.378E-01    0.108E+00
RMM:   5    -0.418584392616E+03    0.12556E-01   -0.16697E-02 12764   0.390E-01    0.528E-01
RMM:   6    -0.418581903323E+03    0.24893E-02   -0.10296E-02 13403   0.261E-01    0.279E-01
RMM:   7    -0.418581601073E+03    0.30225E-03   -0.37399E-03 12125   0.205E-01    0.297E-01
RMM:   8    -0.418580506062E+03    0.10950E-02   -0.11690E-03 11504   0.131E-01    0.789E-02
RMM:   9    -0.418580515076E+03   -0.90134E-05   -0.50819E-04 14225   0.481E-02    0.588E-02
RMM:  10    -0.418580459003E+03    0.56072E-04   -0.12460E-04 13603   0.271E-02    0.330E-02
RMM:  11    -0.418580455430E+03    0.35733E-05   -0.44464E-05 11882   0.195E-02    0.235E-02
RMM:  12    -0.418580452432E+03    0.29975E-05   -0.26383E-05 11676   0.133E-02    0.128E-02
RMM:  13    -0.418580452363E+03    0.69256E-07   -0.10558E-05  9954   0.989E-03    0.858E-03
RMM:  14    -0.418580453107E+03   -0.74356E-06   -0.48419E-06  8104   0.719E-03
  10 F= -.41858045E+03 E0= -.41858465E+03  d E =-.439385E-01
 trial-energy change:   -0.043939  1 .order   -0.044023   -0.067232   -0.020814
 step:   1.4698(harm=  1.4698)  dis= 0.04175  next Energy=  -418.585204 (dE=-0.487E-01)
 bond charge predicted
       N       E                     dE             d eps       ncg     rms          rms(c)
DAV:   1    -0.418585056391E+03   -0.46040E-02   -0.87688E-01 10848   0.238E+00    0.403E-01
RMM:   2    -0.418592099310E+03   -0.70429E-02   -0.29319E-02 12321   0.628E-01    0.771E-01
RMM:   3    -0.418588233754E+03    0.38656E-02   -0.62182E-03 12795   0.276E-01    0.448E-01
RMM:   4    -0.418588649494E+03   -0.41574E-03   -0.46558E-03 14227   0.161E-01    0.472E-01
RMM:   5    -0.418586072985E+03    0.25765E-02   -0.33529E-03 12773   0.175E-01    0.241E-01
RMM:   6    -0.418585545041E+03    0.52794E-03   -0.20580E-03 13390   0.117E-01    0.127E-01
RMM:   7    -0.418585547737E+03   -0.26963E-05   -0.83065E-04 11983   0.982E-02    0.149E-01
RMM:   8    -0.418585260204E+03    0.28753E-03   -0.24988E-04 11492   0.612E-02    0.315E-02
RMM:   9    -0.418585268527E+03   -0.83226E-05   -0.97339E-05 13813   0.218E-02    0.280E-02
RMM:  10    -0.418585257391E+03    0.11136E-04   -0.23336E-05 10774   0.133E-02    0.149E-02
RMM:  11    -0.418585257093E+03    0.29759E-06   -0.10789E-05  9182   0.925E-03    0.990E-03
RMM:  12    -0.418585257603E+03   -0.51016E-06   -0.54822E-06  8448   0.736E-03
  11 F= -.41858526E+03 E0= -.41858966E+03  d E =-.487430E-01
 curvature:  -1.21 expect dE=-0.321E-01 dE for cont linesearch -0.219E-05
 trial: gam= 0.41020 g(F)=  0.264E-01 g(S)=  0.000E+00 ort = 0.444E-03 (trialstep = 0.111E+01)
 search vector abs. value=  0.452E-01
 bond charge predicted
       N       E                     dE             d eps       ncg     rms          rms(c)
DAV:   1    -0.418602411087E+03   -0.17154E-01   -0.27405E+00 10824   0.407E+00    0.510E-01
RMM:   2    -0.418618542496E+03   -0.16131E-01   -0.64846E-02 11966   0.980E-01    0.944E-01
RMM:   3    -0.418611453599E+03    0.70889E-02   -0.15924E-02 13928   0.381E-01    0.597E-01
RMM:   4    -0.418608932421E+03    0.25212E-02   -0.10054E-02 13953   0.247E-01    0.524E-01
RMM:   5    -0.418606643886E+03    0.22885E-02   -0.64027E-03 12611   0.262E-01    0.337E-01
RMM:   6    -0.418605555004E+03    0.10889E-02   -0.32873E-03 12999   0.169E-01    0.207E-01
RMM:   7    -0.418606061832E+03   -0.50683E-03   -0.20631E-03 11865   0.161E-01    0.298E-01
RMM:   8    -0.418605060382E+03    0.10014E-02   -0.69250E-04 11617   0.992E-02    0.713E-02
RMM:   9    -0.418605014848E+03    0.45534E-04   -0.23678E-04 12827   0.435E-02    0.312E-02
RMM:  10    -0.418605017867E+03   -0.30190E-05   -0.11437E-04 13792   0.198E-02    0.294E-02
RMM:  11    -0.418605010105E+03    0.77620E-05   -0.30991E-05 10934   0.171E-02    0.158E-02
RMM:  12    -0.418605008316E+03    0.17890E-05   -0.15582E-05 10595   0.936E-03    0.721E-03
RMM:  13    -0.418605009091E+03   -0.77449E-06   -0.65712E-06  8657   0.599E-03
  12 F= -.41860501E+03 E0= -.41860989E+03  d E =-.197515E-01
 trial-energy change:   -0.019751  1 .order   -0.019704   -0.029415   -0.009994
 step:   1.6748(harm=  1.6748)  dis= 0.02350  next Energy=  -418.607533 (dE=-0.223E-01)
 bond charge predicted
       N       E                     dE             d eps       ncg     rms          rms(c)
DAV:   1    -0.418606887626E+03   -0.18793E-02   -0.72556E-01 10824   0.210E+00    0.260E-01
RMM:   2    -0.418611006938E+03   -0.41193E-02   -0.17122E-02 11978   0.504E-01    0.473E-01
RMM:   3    -0.418609275222E+03    0.17317E-02   -0.41819E-03 13910   0.195E-01    0.305E-01
RMM:   4    -0.418608638052E+03    0.63717E-03   -0.26286E-03 14057   0.124E-01    0.268E-01
RMM:   5    -0.418608011878E+03    0.62617E-03   -0.16997E-03 12625   0.134E-01    0.172E-01
RMM:   6    -0.418607727320E+03    0.28456E-03   -0.87086E-04 12948   0.883E-02    0.107E-01
RMM:   7    -0.418607856896E+03   -0.12958E-03   -0.53774E-04 11841   0.826E-02    0.151E-01
RMM:   8    -0.418607604254E+03    0.25264E-03   -0.17926E-04 11587   0.503E-02    0.368E-02
RMM:   9    -0.418607591535E+03    0.12720E-04   -0.63266E-05 12310   0.222E-02    0.150E-02
RMM:  10    -0.418607593347E+03   -0.18123E-05   -0.29405E-05 11653   0.101E-02    0.146E-02
RMM:  11    -0.418607591594E+03    0.17526E-05   -0.78287E-06  8575   0.863E-03    0.843E-03
RMM:  12    -0.418607591289E+03    0.30494E-06   -0.33025E-06  7753   0.625E-03
  13 F= -.41860759E+03 E0= -.41861272E+03  d E =-.223337E-01
 curvature:  -1.42 expect dE=-0.268E-01 dE for cont linesearch -0.141E-06
 trial: gam= 0.72438 g(F)=  0.188E-01 g(S)=  0.000E+00 ort =-0.669E-04 (trialstep = 0.122E+01)
 search vector abs. value=  0.425E-01
 bond charge predicted
       N       E                     dE             d eps       ncg     rms          rms(c)
DAV:   1    -0.418619595882E+03   -0.12004E-01   -0.31752E+00 10824   0.437E+00    0.575E-01
RMM:   2    -0.418642751885E+03   -0.23156E-01   -0.75322E-02 11777   0.110E+00    0.121E+00
RMM:   3    -0.418629242351E+03    0.13510E-01   -0.19154E-02 13610   0.438E-01    0.595E-01
RMM:   4    -0.418629651002E+03   -0.40865E-03   -0.12184E-02 13198   0.306E-01    0.719E-01
RMM:   5    -0.418624593969E+03    0.50570E-02   -0.78089E-03 12330   0.293E-01    0.366E-01
RMM:   6    -0.418624337572E+03    0.25640E-03   -0.45519E-03 12529   0.205E-01    0.330E-01
RMM:   7    -0.418623246775E+03    0.10908E-02   -0.21984E-03 12390   0.159E-01    0.165E-01
RMM:   8    -0.418623005812E+03    0.24096E-03   -0.84118E-04 12741   0.895E-02    0.965E-02
RMM:   9    -0.418622870515E+03    0.13530E-03   -0.27174E-04 12483   0.509E-02    0.303E-02
RMM:  10    -0.418622882336E+03   -0.11820E-04   -0.16547E-04 13967   0.243E-02    0.361E-02
RMM:  11    -0.418622870907E+03    0.11429E-04   -0.47329E-05 11450   0.220E-02    0.168E-02
RMM:  12    -0.418622869461E+03    0.14464E-05   -0.26058E-05 11023   0.884E-03    0.651E-03
RMM:  13    -0.418622871038E+03   -0.15776E-05   -0.63461E-06  8343   0.600E-03    0.537E-03
RMM:  14    -0.418622870697E+03    0.34084E-06   -0.17812E-06  7245   0.480E-03
  14 F= -.41862287E+03 E0= -.41862832E+03  d E =-.152794E-01
 trial-energy change:   -0.015279  1 .order   -0.015269   -0.022902   -0.007637
 step:   1.8297(harm=  1.8297)  dis= 0.01862  next Energy=  -418.624771 (dE=-0.172E-01)
 bond charge predicted
       N       E                     dE             d eps       ncg     rms          rms(c)
DAV:   1    -0.418623972639E+03   -0.11016E-02   -0.79444E-01 10824   0.219E+00    0.286E-01
RMM:   2    -0.418629437256E+03   -0.54646E-02   -0.18539E-02 11826   0.545E-01    0.585E-01
RMM:   3    -0.418626389866E+03    0.30474E-02   -0.47582E-03 13628   0.217E-01    0.297E-01
RMM:   4    -0.418626507840E+03   -0.11797E-03   -0.30456E-03 13250   0.151E-01    0.361E-01
RMM:   5    -0.418625207811E+03    0.13000E-02   -0.19358E-03 12324   0.146E-01    0.178E-01
RMM:   6    -0.418625163546E+03    0.44265E-04   -0.11583E-03 12661   0.100E-01    0.164E-01
RMM:   7    -0.418624885338E+03    0.27821E-03   -0.53760E-04 12349   0.786E-02    0.814E-02
RMM:   8    -0.418624829197E+03    0.56141E-04   -0.20914E-04 12581   0.455E-02    0.478E-02
RMM:   9    -0.418624796695E+03    0.32501E-04   -0.67489E-05 12290   0.254E-02    0.144E-02
RMM:  10    -0.418624799954E+03   -0.32588E-05   -0.39417E-05 11848   0.118E-02    0.178E-02
RMM:  11    -0.418624797112E+03    0.28418E-05   -0.11002E-05  8869   0.108E-02    0.850E-03
RMM:  12    -0.418624796816E+03    0.29658E-06   -0.59427E-06  8454   0.577E-03
  15 F= -.41862480E+03 E0= -.41863040E+03  d E =-.172055E-01
 curvature:  -2.07 expect dE=-0.301E-01 dE for cont linesearch -0.200E-07
 trial: gam= 0.74724 g(F)=  0.145E-01 g(S)=  0.000E+00 ort =-0.203E-04 (trialstep = 0.134E+01)
 search vector abs. value=  0.382E-01
 bond charge predicted
       N       E                     dE             d eps       ncg     rms          rms(c)
DAV:   1    -0.418633764773E+03   -0.89677E-02   -0.41516E+00 10824   0.488E+00    0.536E-01
RMM:   2    -0.418656680701E+03   -0.22916E-01   -0.78470E-02 11576   0.116E+00    0.118E+00
RMM:   3    -0.418643013365E+03    0.13667E-01   -0.21799E-02 14015   0.445E-01    0.528E-01
RMM:   4    -0.418646061447E+03   -0.30481E-02   -0.11806E-02 13826   0.264E-01    0.760E-01
RMM:   5    -0.418638798508E+03    0.72629E-02   -0.57328E-03 12321   0.247E-01    0.255E-01
RMM:   6    -0.418639183989E+03   -0.38548E-03   -0.39338E-03 12774   0.187E-01    0.244E-01
RMM:   7    -0.418638404002E+03    0.77999E-03   -0.15945E-03 11850   0.143E-01    0.151E-01
RMM:   8    -0.418638172879E+03    0.23112E-03   -0.71084E-04 12604   0.823E-02    0.822E-02
RMM:   9    -0.418638085801E+03    0.87077E-04   -0.28408E-04 13547   0.421E-02    0.279E-02
RMM:  10    -0.418638094308E+03   -0.85064E-05   -0.11649E-04 13265   0.237E-02    0.352E-02
RMM:  11    -0.418638082589E+03    0.11719E-04   -0.32760E-05 11222   0.166E-02    0.143E-02
RMM:  12    -0.418638083073E+03   -0.48457E-06   -0.19897E-05 10122   0.958E-03    0.965E-03
RMM:  13    -0.418638082123E+03    0.95011E-06   -0.53502E-06  8233   0.648E-03
  16 F= -.41863808E+03 E0= -.41864370E+03  d E =-.132853E-01
 trial-energy change:   -0.013285  1 .order   -0.013014   -0.019478   -0.006549
 step:   1.9175(harm=  2.0212)  dis= 0.02193  next Energy=  -418.639509 (dE=-0.147E-01)
 bond charge predicted
       N       E                     dE             d eps       ncg     rms          rms(c)
DAV:   1    -0.418638780303E+03   -0.69723E-03   -0.76467E-01 10824   0.209E+00    0.230E-01
RMM:   2    -0.418642468539E+03   -0.36882E-02   -0.14310E-02 11568   0.498E-01    0.477E-01
RMM:   3    -0.418640537946E+03    0.19306E-02   -0.40780E-03 13958   0.194E-01    0.229E-01
RMM:   4    -0.418641150493E+03   -0.61255E-03   -0.21289E-03 14085   0.106E-01    0.325E-01
RMM:   5    -0.418639717057E+03    0.14334E-02   -0.10638E-03 12294   0.107E-01    0.112E-01
RMM:   6    -0.418639787058E+03   -0.70001E-04   -0.73888E-04 12708   0.830E-02    0.108E-01
RMM:   7    -0.418639637832E+03    0.14923E-03   -0.29702E-04 11842   0.619E-02    0.639E-02
RMM:   8    -0.418639600537E+03    0.37295E-04   -0.13622E-04 12525   0.359E-02    0.369E-02
RMM:   9    -0.418639582392E+03    0.18144E-04   -0.52262E-05 12552   0.185E-02    0.119E-02
RMM:  10    -0.418639584302E+03   -0.19099E-05   -0.21857E-05 10208   0.108E-02    0.157E-02
RMM:  11    -0.418639582130E+03    0.21725E-05   -0.60105E-06  8104   0.808E-03    0.637E-03
RMM:  12    -0.418639582453E+03   -0.32344E-06   -0.35329E-06  7946   0.535E-03
  17 F= -.41863958E+03 E0= -.41864515E+03  d E =-.147856E-01
 curvature:  -2.60 expect dE=-0.268E-01 dE for cont linesearch -0.195E-05
 trial: gam= 0.60159 g(F)=  0.103E-01 g(S)=  0.000E+00 ort = 0.170E-03 (trialstep = 0.146E+01)
 search vector abs. value=  0.244E-01
 bond charge predicted
       N       E                     dE             d eps       ncg     rms          rms(c)
DAV:   1    -0.418644457083E+03   -0.48750E-02   -0.37841E+00 10824   0.457E+00    0.417E-01
RMM:   2    -0.418655544272E+03   -0.11087E-01   -0.63685E-02 11461   0.106E+00    0.790E-01
RMM:   3    -0.418650499125E+03    0.50451E-02   -0.18360E-02 13911   0.415E-01    0.388E-01
RMM:   4    -0.418654664170E+03   -0.41650E-02   -0.74015E-03 14674   0.159E-01    0.546E-01
RMM:   5    -0.418649091418E+03    0.55728E-02   -0.29826E-03 12759   0.168E-01    0.277E-01
RMM:   6    -0.418649288708E+03   -0.19729E-03   -0.29764E-03 12348   0.173E-01    0.323E-01
RMM:   7    -0.418648704035E+03    0.58467E-03   -0.18164E-03 12321   0.145E-01    0.170E-01
RMM:   8    -0.418648336649E+03    0.36739E-03   -0.66804E-04 12468   0.856E-02    0.895E-02
RMM:   9    -0.418648233845E+03    0.10280E-03   -0.26100E-04 13303   0.427E-02    0.320E-02
RMM:  10    -0.418648234907E+03   -0.10624E-05   -0.11744E-04 13660   0.232E-02    0.277E-02
RMM:  11    -0.418648225519E+03    0.93883E-05   -0.35997E-05 12051   0.152E-02    0.118E-02
RMM:  12    -0.418648225793E+03   -0.27419E-06   -0.15409E-05  9496   0.960E-03    0.944E-03
RMM:  13    -0.418648225036E+03    0.75736E-06   -0.48338E-06  7989   0.746E-03
  18 F= -.41864823E+03 E0= -.41865346E+03  d E =-.864258E-02
 trial-energy change:   -0.008643  1 .order   -0.008387   -0.015200   -0.001574
 step:   1.6065(harm=  1.6251)  dis= 0.01713  next Energy=  -418.648306 (dE=-0.872E-02)
 bond charge predicted
       N       E                     dE             d eps       ncg     rms          rms(c)
DAV:   1    -0.418648272652E+03   -0.46859E-04   -0.39990E-02 11496   0.470E-01    0.434E-02
RMM:   2    -0.418648387191E+03   -0.11454E-03   -0.68759E-04 11542   0.110E-01    0.792E-02
RMM:   3    -0.418648334186E+03    0.53005E-04   -0.20411E-04 13775   0.440E-02    0.385E-02
RMM:   4    -0.418648381151E+03   -0.46964E-04   -0.76237E-05 13751   0.171E-02    0.526E-02
RMM:   5    -0.418648327474E+03    0.53676E-04   -0.28704E-05 12009   0.153E-02    0.308E-02
RMM:   6    -0.418648327623E+03   -0.14863E-06   -0.31496E-05 11116   0.181E-02    0.335E-02
RMM:   7    -0.418648321896E+03    0.57266E-05   -0.18788E-05 10964   0.149E-02    0.182E-02
RMM:   8    -0.418648318305E+03    0.35909E-05   -0.63963E-06  8465   0.943E-03    0.981E-03
RMM:   9    -0.418648317242E+03    0.10637E-05   -0.21544E-06  7319   0.573E-03    0.383E-03
RMM:  10    -0.418648317376E+03   -0.13498E-06   -0.94163E-07  6824   0.380E-03
  19 F= -.41864832E+03 E0= -.41865351E+03  d E =-.873492E-02
 curvature:  -1.87 expect dE=-0.145E-01 dE for cont linesearch -0.285E-06
 trial: gam= 0.61462 g(F)=  0.773E-02 g(S)=  0.000E+00 ort = 0.609E-04 (trialstep = 0.149E+01)
 search vector abs. value=  0.170E-01
 bond charge predicted
       N       E                     dE             d eps       ncg     rms          rms(c)
DAV:   1    -0.418652609809E+03   -0.42926E-02   -0.24288E+00 10824   0.375E+00    0.413E-01
RMM:   2    -0.418661250119E+03   -0.86403E-02   -0.45976E-02 11471   0.899E-01    0.710E-01
RMM:   3    -0.418658258801E+03    0.29913E-02   -0.12629E-02 13684   0.363E-01    0.456E-01
RMM:   4    -0.418660030995E+03   -0.17722E-02   -0.80333E-03 14395   0.193E-01    0.538E-01
RMM:   5    -0.418655510822E+03    0.45202E-02   -0.37150E-03 12700   0.188E-01    0.193E-01
RMM:   6    -0.418655644214E+03   -0.13339E-03   -0.26278E-03 13251   0.142E-01    0.239E-01
RMM:   7    -0.418655574391E+03    0.69822E-04   -0.14911E-03 11936   0.132E-01    0.213E-01
RMM:   8    -0.418655042880E+03    0.53151E-03   -0.58172E-04 12335   0.773E-02    0.739E-02
RMM:   9    -0.418654986394E+03    0.56485E-04   -0.19225E-04 12765   0.441E-02    0.286E-02
RMM:  10    -0.418654992096E+03   -0.57018E-05   -0.10450E-04 13544   0.188E-02    0.233E-02
RMM:  11    -0.418654985106E+03    0.69905E-05   -0.24789E-05 10611   0.127E-02    0.101E-02
RMM:  12    -0.418654985438E+03   -0.33278E-06   -0.10819E-05  9758   0.694E-03    0.728E-03
RMM:  13    -0.418654985160E+03    0.27889E-06   -0.34658E-06  7761   0.583E-03
  20 F= -.41865499E+03 E0= -.41866011E+03  d E =-.666778E-02
 trial-energy change:   -0.006668  1 .order   -0.006599   -0.011548   -0.001650
 step:   1.7232(harm=  1.7346)  dis= 0.01262  next Energy=  -418.655117 (dE=-0.680E-02)
 bond charge predicted
       N       E                     dE             d eps       ncg     rms          rms(c)
DAV:   1    -0.418655063334E+03   -0.77896E-04   -0.61520E-02 10920   0.596E-01    0.659E-02
RMM:   2    -0.418655289307E+03   -0.22597E-03   -0.11651E-03 11497   0.143E-01    0.115E-01
RMM:   3    -0.418655205721E+03    0.83586E-04   -0.32156E-04 13669   0.577E-02    0.721E-02
RMM:   4    -0.418655253307E+03   -0.47586E-04   -0.20633E-04 14194   0.309E-02    0.857E-02
RMM:   5    -0.418655135641E+03    0.11767E-03   -0.94776E-05 12557   0.299E-02    0.305E-02
RMM:   6    -0.418655141539E+03   -0.58987E-05   -0.65301E-05 12794   0.235E-02    0.401E-02
RMM:   7    -0.418655137114E+03    0.44254E-05   -0.36753E-05 11359   0.208E-02    0.317E-02
RMM:   8    -0.418655125250E+03    0.11864E-04   -0.13745E-05  9939   0.118E-02    0.104E-02
RMM:   9    -0.418655124223E+03    0.10277E-05   -0.43932E-06  7927   0.706E-03    0.501E-03
RMM:  10    -0.418655124422E+03   -0.19959E-06   -0.17751E-06  7304   0.451E-03
  21 F= -.41865512E+03 E0= -.41866023E+03  d E =-.680705E-02
 curvature:  -1.90 expect dE=-0.996E-02 dE for cont linesearch -0.102E-06
 trial: gam= 0.59111 g(F)=  0.526E-02 g(S)=  0.000E+00 ort = 0.303E-04 (trialstep = 0.153E+01)
 search vector abs. value=  0.112E-01
 bond charge predicted
       N       E                     dE             d eps       ncg     rms          rms(c)
DAV:   1    -0.418657929736E+03   -0.28055E-02   -0.15441E+00 10824   0.301E+00    0.334E-01
RMM:   2    -0.418665384958E+03   -0.74552E-02   -0.30200E-02 11607   0.706E-01    0.634E-01
RMM:   3    -0.418661669015E+03    0.37159E-02   -0.76815E-03 14073   0.272E-01    0.327E-01
RMM:   4    -0.418661887064E+03   -0.21805E-03   -0.57770E-03 14241   0.164E-01    0.369E-01
RMM:   5    -0.418659955103E+03    0.19320E-02   -0.25516E-03 12397   0.161E-01    0.180E-01
RMM:   6    -0.418659829529E+03    0.12557E-03   -0.16720E-03 12827   0.125E-01    0.141E-01
RMM:   7    -0.418659758527E+03    0.71002E-04   -0.75151E-04 12471   0.922E-02    0.129E-01
RMM:   8    -0.418659617967E+03    0.14056E-03   -0.32510E-04 11810   0.596E-02    0.801E-02
RMM:   9    -0.418659546554E+03    0.71413E-04   -0.12405E-04 12601   0.331E-02    0.176E-02
RMM:  10    -0.418659552287E+03   -0.57329E-05   -0.67634E-05 12707   0.149E-02    0.228E-02
RMM:  11    -0.418659546975E+03    0.53122E-05   -0.15733E-05  9738   0.124E-02    0.102E-02
RMM:  12    -0.418659547115E+03   -0.14049E-06   -0.94853E-06  9200   0.609E-03
  22 F= -.41865955E+03 E0= -.41866476E+03  d E =-.442269E-02
 trial-energy change:   -0.004423  1 .order   -0.004395   -0.008091   -0.000699
 step:   1.6756(harm=  1.6791)  dis= 0.01167  next Energy=  -418.659579 (dE=-0.445E-02)
 bond charge predicted
       N       E                     dE             d eps       ncg     rms          rms(c)
DAV:   1    -0.418659569531E+03   -0.22556E-04   -0.13176E-02 11832   0.278E-01    0.310E-02
RMM:   2    -0.418659639738E+03   -0.70207E-04   -0.27468E-04 11704   0.657E-02    0.631E-02
RMM:   3    -0.418659603010E+03    0.36728E-04   -0.67269E-05 13706   0.258E-02    0.306E-02
RMM:   4    -0.418659599983E+03    0.30269E-05   -0.46926E-05 12971   0.156E-02    0.312E-02
RMM:   5    -0.418659588586E+03    0.11398E-04   -0.22142E-05 10970   0.155E-02    0.193E-02
RMM:   6    -0.418659585196E+03    0.33893E-05   -0.11174E-05  9647   0.112E-02    0.106E-02
RMM:   7    -0.418659584749E+03    0.44768E-06   -0.60346E-06  8304   0.809E-03
  23 F= -.41865958E+03 E0= -.41866481E+03  d E =-.446033E-02
 curvature:  -1.79 expect dE=-0.460E-02 dE for cont linesearch -0.275E-06
 trial: gam= 0.46642 g(F)=  0.257E-02 g(S)=  0.000E+00 ort = 0.416E-04 (trialstep = 0.156E+01)
 search vector abs. value=  0.506E-02
 bond charge predicted
       N       E                     dE             d eps       ncg     rms          rms(c)
DAV:   1    -0.418661043960E+03   -0.14588E-02   -0.66810E-01 10824   0.199E+00    0.229E-01
RMM:   2    -0.418664845909E+03   -0.38019E-02   -0.13838E-02 11692   0.473E-01    0.434E-01
RMM:   3    -0.418662571345E+03    0.22746E-02   -0.34602E-03 14161   0.178E-01    0.222E-01
RMM:   4    -0.418662628396E+03   -0.57051E-04   -0.22643E-03 13090   0.138E-01    0.262E-01
RMM:   5    -0.418662067328E+03    0.56107E-03   -0.11885E-03 12007   0.121E-01    0.172E-01
RMM:   6    -0.418661888912E+03    0.17842E-03   -0.81033E-04 11775   0.101E-01    0.115E-01
RMM:   7    -0.418661844266E+03    0.44646E-04   -0.36057E-04 12547   0.624E-02    0.810E-02
RMM:   8    -0.418661764447E+03    0.79819E-04   -0.15146E-04 12326   0.373E-02    0.365E-02
RMM:   9    -0.418661746975E+03    0.17471E-04   -0.61874E-05 12974   0.169E-02    0.154E-02
RMM:  10    -0.418661747414E+03   -0.43862E-06   -0.20863E-05 10716   0.116E-02    0.151E-02
RMM:  11    -0.418661746026E+03    0.13879E-05   -0.10009E-05  9799   0.884E-03    0.654E-03
RMM:  12    -0.418661745767E+03    0.25931E-06   -0.38902E-06  8112   0.498E-03
  24 F= -.41866175E+03 E0= -.41866701E+03  d E =-.216102E-02
 trial-energy change:   -0.002161  1 .order   -0.002159   -0.004051   -0.000268
 step:   1.6729(harm=  1.6729)  dis= 0.00664  next Energy=  -418.661753 (dE=-0.217E-02)
 bond charge predicted
       N       E                     dE             d eps       ncg     rms          rms(c)
DAV:   1    -0.418661753258E+03   -0.72324E-05   -0.33524E-03 11796   0.141E-01    0.166E-02
RMM:   2    -0.418661775005E+03   -0.21747E-04   -0.74222E-05 11888   0.339E-02    0.333E-02
RMM:   3    -0.418661761081E+03    0.13924E-04   -0.17297E-05 11383   0.130E-02    0.158E-02
RMM:   4    -0.418661760906E+03    0.17575E-06   -0.11662E-05  9492   0.108E-02    0.178E-02
RMM:   5    -0.418661759076E+03    0.18295E-05   -0.66306E-06  8397   0.102E-02    0.140E-02
RMM:   6    -0.418661757606E+03    0.14697E-05   -0.37067E-06  7596   0.825E-03    0.739E-03
RMM:   7    -0.418661757515E+03    0.91030E-07   -0.16203E-06  7025   0.555E-03
  25 F= -.41866176E+03 E0= -.41866703E+03  d E =-.217277E-02
 curvature:  -1.63 expect dE=-0.252E-02 dE for cont linesearch -0.814E-07
 trial: gam= 0.58676 g(F)=  0.154E-02 g(S)=  0.000E+00 ort = 0.159E-04 (trialstep = 0.158E+01)
 search vector abs. value=  0.330E-02
 bond charge predicted
       N       E                     dE             d eps       ncg     rms          rms(c)
DAV:   1    -0.418662770939E+03   -0.10133E-02   -0.46738E-01 10824   0.167E+00    0.168E-01
RMM:   2    -0.418665281419E+03   -0.25105E-02   -0.94828E-03 11735   0.387E-01    0.386E-01
RMM:   3    -0.418663668087E+03    0.16133E-02   -0.22170E-03 13898   0.148E-01    0.161E-01
RMM:   4    -0.418663773129E+03   -0.10504E-03   -0.12804E-03 14273   0.811E-02    0.194E-01
RMM:   5    -0.418663406832E+03    0.36630E-03   -0.69015E-04 12646   0.801E-02    0.124E-01
RMM:   6    -0.418663271325E+03    0.13551E-03   -0.49996E-04 11903   0.785E-02    0.724E-02
RMM:   7    -0.418663249746E+03    0.21579E-04   -0.22355E-04 12878   0.508E-02    0.541E-02
RMM:   8    -0.418663234472E+03    0.15274E-04   -0.96154E-05 12381   0.305E-02    0.431E-02
RMM:   9    -0.418663207597E+03    0.26875E-04   -0.33522E-05 11677   0.169E-02    0.941E-03
RMM:  10    -0.418663208071E+03   -0.47367E-06   -0.16474E-05  9986   0.775E-03    0.819E-03
RMM:  11    -0.418663207124E+03    0.94640E-06   -0.40357E-06  7756   0.602E-03
  26 F= -.41866321E+03 E0= -.41866841E+03  d E =-.144961E-02
 trial-energy change:   -0.001450  1 .order   -0.001442   -0.002458   -0.000425
 step:   1.9067(harm=  1.9160)  dis= 0.00588  next Energy=  -418.663250 (dE=-0.149E-02)
 bond charge predicted
       N       E                     dE             d eps       ncg     rms          rms(c)
DAV:   1    -0.418663235688E+03   -0.27618E-04   -0.19375E-02 10848   0.340E-01    0.349E-02
RMM:   2    -0.418663364499E+03   -0.12881E-03   -0.41277E-04 11883   0.787E-02    0.834E-02
RMM:   3    -0.418663273926E+03    0.90572E-04   -0.96122E-05 13846   0.299E-02    0.346E-02
RMM:   4    -0.418663275299E+03   -0.13725E-05   -0.55670E-05 13093   0.185E-02    0.399E-02
RMM:   5    -0.418663263062E+03    0.12237E-04   -0.31421E-05 11877   0.172E-02    0.270E-02
RMM:   6    -0.418663256287E+03    0.67750E-05   -0.20756E-05 10326   0.165E-02    0.160E-02
RMM:   7    -0.418663255324E+03    0.96256E-06   -0.89100E-06  9351   0.110E-02
  27 F= -.41866326E+03 E0= -.41866844E+03  d E =-.149781E-02
 curvature:  -2.04 expect dE=-0.193E-02 dE for cont linesearch -0.222E-06
 trial: gam= 0.59355 g(F)=  0.946E-03 g(S)=  0.000E+00 ort = 0.190E-04 (trialstep = 0.165E+01)
 search vector abs. value=  0.213E-02
 bond charge predicted
       N       E                     dE             d eps       ncg     rms          rms(c)
DAV:   1    -0.418663730154E+03   -0.47387E-03   -0.31955E-01 10824   0.139E+00    0.128E-01
RMM:   2    -0.418664684482E+03   -0.95433E-03   -0.59406E-03 11638   0.309E-01    0.207E-01
RMM:   3    -0.418664401161E+03    0.28332E-03   -0.17035E-03 14231   0.120E-01    0.148E-01
RMM:   4    -0.418664600227E+03   -0.19907E-03   -0.84317E-04 14554   0.594E-02    0.172E-01
RMM:   5    -0.418664169609E+03    0.43062E-03   -0.40730E-04 12728   0.623E-02    0.948E-02
RMM:   6    -0.418664077194E+03    0.92415E-04   -0.24467E-04 12333   0.522E-02    0.589E-02
RMM:   7    -0.418664086347E+03   -0.91533E-05   -0.14875E-04 12535   0.396E-02    0.616E-02
RMM:   8    -0.418664048638E+03    0.37709E-04   -0.70517E-05 11891   0.301E-02    0.272E-02
RMM:   9    -0.418664041210E+03    0.74280E-05   -0.26252E-05 11028   0.150E-02    0.143E-02
RMM:  10    -0.418664040107E+03    0.11028E-05   -0.11946E-05  8802   0.797E-03    0.733E-03
RMM:  11    -0.418664039777E+03    0.33063E-06   -0.30241E-06  7786   0.543E-03
  28 F= -.41866404E+03 E0= -.41866933E+03  d E =-.784452E-03
 trial-energy change:   -0.000784  1 .order   -0.000779   -0.001579    0.000021
 step:   1.6277(harm=  1.6273)  dis= 0.00393  next Energy=  -418.664040 (dE=-0.785E-03)
 bond charge predicted
       N       E                     dE             d eps       ncg     rms          rms(c)
DAV:   1    -0.418664039865E+03    0.24275E-06   -0.52585E-05 13752   0.192E-02    0.281E-03
RMM:   2    -0.418664041300E+03   -0.14355E-05   -0.28719E-06  7489   0.593E-03    0.714E-03
RMM:   3    -0.418664040479E+03    0.82114E-06   -0.66968E-07  6274   0.423E-03    0.514E-03
RMM:   4    -0.418664040096E+03    0.38306E-06   -0.25657E-07  5889   0.194E-03    0.147E-03
RMM:   5    -0.418664040272E+03   -0.17587E-06   -0.15944E-07  5844   0.175E-03
  29 F= -.41866404E+03 E0= -.41866933E+03  d E =-.784948E-03
 curvature:  -1.81 expect dE=-0.110E-02 dE for cont linesearch -0.111E-06
 trial: gam= 0.63410 g(F)=  0.610E-03 g(S)=  0.000E+00 ort = 0.115E-04 (trialstep = 0.164E+01)
 search vector abs. value=  0.148E-02
 bond charge predicted
       N       E                     dE             d eps       ncg     rms          rms(c)
DAV:   1    -0.418664306385E+03   -0.26629E-03   -0.20566E-01 10824   0.112E+00    0.118E-01
RMM:   2    -0.418664981915E+03   -0.67553E-03   -0.40654E-03 11540   0.258E-01    0.175E-01
RMM:   3    -0.418664948508E+03    0.33407E-04   -0.12934E-03 14503   0.972E-02    0.141E-01
RMM:   4    -0.418664865296E+03    0.83212E-04   -0.55527E-04 14407   0.528E-02    0.134E-01
RMM:   5    -0.418664612228E+03    0.25307E-03   -0.33000E-04 12347   0.596E-02    0.733E-02
RMM:   6    -0.418664577348E+03    0.34880E-04   -0.17064E-04 12614   0.413E-02    0.503E-02
RMM:   7    -0.418664590653E+03   -0.13304E-04   -0.10258E-04 12057   0.343E-02    0.592E-02
RMM:   8    -0.418664557222E+03    0.33431E-04   -0.43395E-05 11860   0.223E-02    0.231E-02
RMM:   9    -0.418664548569E+03    0.86529E-05   -0.14245E-05 10105   0.102E-02    0.861E-03
RMM:  10    -0.418664548220E+03    0.34917E-06   -0.59741E-06  8043   0.620E-03
  30 F= -.41866455E+03 E0= -.41866991E+03  d E =-.507948E-03
 trial-energy change:   -0.000508  1 .order   -0.000509   -0.001015   -0.000004
 step:   1.6515(harm=  1.6515)  dis= 0.00374  next Energy=  -418.664550 (dE=-0.509E-03)
 bond charge predicted
       N       E                     dE             d eps       ncg     rms          rms(c)
DAV:   1    -0.418664548194E+03    0.37462E-06   -0.87381E-06 14976   0.108E-02    0.411E-03
RMM:   2    -0.418664549604E+03   -0.14094E-05   -0.57557E-06  8091   0.773E-03    0.109E-02
RMM:   3    -0.418664548445E+03    0.11584E-05   -0.16359E-06  7052   0.702E-03    0.398E-03
RMM:   4    -0.418664548264E+03    0.18149E-06   -0.23738E-07  6034   0.157E-03    0.277E-03
RMM:   5    -0.418664548167E+03    0.96306E-07   -0.14689E-07  5856   0.184E-03
  31 F= -.41866455E+03 E0= -.41866991E+03  d E =-.507896E-03
 curvature:  -1.98 expect dE=-0.535E-03 dE for cont linesearch -0.259E-07
 trial: gam= 0.43174 g(F)=  0.270E-03 g(S)=  0.000E+00 ort = 0.440E-05 (trialstep = 0.165E+01)
 search vector abs. value=  0.550E-03
 bond charge predicted
       N       E                     dE             d eps       ncg     rms          rms(c)
DAV:   1    -0.418664717030E+03   -0.16877E-03   -0.70240E-02 10824   0.663E-01    0.707E-02
RMM:   2    -0.418665061906E+03   -0.34488E-03   -0.14191E-03 11509   0.155E-01    0.121E-01
RMM:   3    -0.418664880949E+03    0.18096E-03   -0.41360E-04 14468   0.545E-02    0.735E-02
RMM:   4    -0.418664889936E+03   -0.89864E-05   -0.21495E-04 13827   0.381E-02    0.865E-02
RMM:   5    -0.418664801163E+03    0.88773E-04   -0.11470E-04 12221   0.374E-02    0.401E-02
RMM:   6    -0.418664799412E+03    0.17512E-05   -0.74070E-05 12821   0.251E-02    0.378E-02
RMM:   7    -0.418664795511E+03    0.39006E-05   -0.38649E-05 11271   0.230E-02    0.313E-02
RMM:   8    -0.418664785159E+03    0.10352E-04   -0.12073E-05  9798   0.124E-02    0.114E-02
RMM:   9    -0.418664783521E+03    0.16384E-05   -0.41348E-06  7828   0.646E-03    0.454E-03
RMM:  10    -0.418664783755E+03   -0.23402E-06   -0.19536E-06  7254   0.441E-03
  32 F= -.41866478E+03 E0= -.41867024E+03  d E =-.235587E-03
 trial-energy change:   -0.000236  1 .order   -0.000233   -0.000447   -0.000020
 step:   1.7223(harm=  1.7223)  dis= 0.00314  next Energy=  -418.664782 (dE=-0.234E-03)
 reached required accuracy - stopping structural energy minimisation
 augmentation electrons   21.176935617188668     
 soft         electrons   176.88009300207506     
 augmentation electrons   21.176935617188668     
 soft         electrons   176.88009300207506     
 augmentation electrons   21.176935617188668     
 soft         electrons   176.88009300207506     
 augmentation electrons   21.176935617188668     
 soft         electrons   176.88009300207506     
 augmentation electrons   21.176935617188668     
 soft         electrons   176.88009300207506     
 augmentation electrons   21.176935617188668     
 soft         electrons   176.88009300207506     
 augmentation electrons   21.176935617188668     
 soft         electrons   176.88009300207506     
 augmentation electrons   21.176935617188668     
 soft         electrons   176.88009300207506     
 augmentation electrons   21.176935617188668     
 soft         electrons   176.88009300207506     
 augmentation electrons   21.176935617188668     
 soft         electrons   176.88009300207506     
 augmentation electrons   21.176935617188668     
 soft         electrons   176.88009300207506     
 augmentation electrons   21.176935617188668     
 soft         electrons   176.88009300207506     
 augmentation electrons   21.176935617188668     
 soft         electrons   176.88009300207506     
 augmentation electrons   21.176935617188668     
 soft         electrons   176.88009300207506     
 augmentation electrons   21.176935617188668     
 soft         electrons   176.88009300207506     
 augmentation electrons   21.176935617188668     
 soft         electrons   176.88009300207506     
 augmentation electrons   21.176935617188668     
 soft         electrons   176.88009300207506     
 augmentation electrons   21.176935617188668     
 soft         electrons   176.88009300207506     
 augmentation electrons   21.176935617188668     
 soft         electrons   176.88009300207506     
 augmentation electrons   21.176935617188668     
 soft         electrons   176.88009300207506     
 augmentation electrons   21.176935617188668     
 soft         electrons   176.88009300207506     
 augmentation electrons   21.176935617188668     
 soft         electrons   176.88009300207506     
 augmentation electrons   21.176935617188668     
 soft         electrons   176.88009300207506     
 augmentation electrons   21.176935617188668     
 soft         electrons   176.88009300207506     
 augmentation electrons   21.176935617188668     
 soft         electrons   176.88009300207506     
 augmentation electrons   21.176935617188668     
 soft         electrons   176.88009300207506     
 augmentation electrons   21.176935617188668     
 soft         electrons   176.88009300207506     
 augmentation electrons   21.176935617188668     
 soft         electrons   176.88009300207506     
 augmentation electrons   21.176935617188668     
 soft         electrons   176.88009300207506     
 augmentation electrons   21.176935617188668     
 soft         electrons   176.88009300207506     
 augmentation electrons   21.176935617188668     
 soft         electrons   176.88009300207506     
 augmentation electrons   21.176935617188668     
 soft         electrons   176.88009300207506     
 augmentation electrons   21.176935617188668     
 soft         electrons   176.88009300207506     
 augmentation electrons   21.176935617188668     
 soft         electrons   176.88009300207506     
 augmentation electrons   21.176935617188668     
 soft         electrons   176.88009300207506     
 augmentation electrons   21.176935617188668     
 soft         electrons   176.88009300207506     
 augmentation electrons   21.176935617188668     
 soft         electrons   176.88009300207506     
 augmentation electrons   21.176935617188668     
 soft         electrons   176.88009300207506     
 augmentation electrons   21.176935617188668     
 soft         electrons   176.88009300207506     
 augmentation electrons   21.176935617188668     
 soft         electrons   176.88009300207506     
 augmentation electrons   21.176935617188668     
 soft         electrons   176.88009300207506     
 augmentation electrons   21.176935617188668     
 soft         electrons   176.88009300207506     
 augmentation electrons   21.176935617188668     
 soft         electrons   176.88009300207506     
 augmentation electrons   21.176935617188668     
 soft         electrons   176.88009300207506     
 augmentation electrons   21.176935617188668     
 soft         electrons   176.88009300207506     
 augmentation electrons   21.176935617188668     
 soft         electrons   176.88009300207506     
 augmentation electrons   21.176935617188668     
 soft         electrons   176.88009300207506     
 augmentation electrons   21.176935617188668     
 soft         electrons   176.88009300207506     
 augmentation electrons   21.176935617188668     
 soft         electrons   176.88009300207506     
 augmentation electrons   21.176935617188668     
 soft         electrons   176.88009300207506     
 augmentation electrons   21.176935617188668     
 soft         electrons   176.88009300207506     
 augmentation electrons   21.176935617188668     
 soft         electrons   176.88009300207506     
 augmentation electrons   21.176935617188668     
 soft         electrons   176.88009300207506     
 augmentation electrons   21.176935617188668     
 soft         electrons   176.88009300207506     
 total        electrons   198.05702861926372     
 total        electrons   198.05702861926372     
 total        electrons   198.05702861926372     
 total        electrons   198.05702861926372     
 total        electrons   198.05702861926372     
 total        electrons   198.05702861926372     
 total        electrons   198.05702861926372     
 total        electrons   198.05702861926372     
 total        electrons   198.05702861926372     
 total        electrons   198.05702861926372     
 total        electrons   198.05702861926372     
 total        electrons   198.05702861926372     
 total        electrons   198.05702861926372     
 total        electrons   198.05702861926372     
 total        electrons   198.05702861926372     
 total        electrons   198.05702861926372     
 total        electrons   198.05702861926372     
 total        electrons   198.05702861926372     
 total        electrons   198.05702861926372     
 total        electrons   198.05702861926372     
 total        electrons   198.05702861926372     
 total        electrons   198.05702861926372     
 total        electrons   198.05702861926372     
 total        electrons   198.05702861926372     
 total        electrons   198.05702861926372     
 total        electrons   198.05702861926372     
 total        electrons   198.05702861926372     
 total        electrons   198.05702861926372     
 total        electrons   198.05702861926372     
 total        electrons   198.05702861926372     
 total        electrons   198.05702861926372     
 total        electrons   198.05702861926372     
 total        electrons   198.05702861926372     
 total        electrons   198.05702861926372     
 total        electrons   198.05702861926372     
 total        electrons   198.05702861926372     
 total        electrons   198.05702861926372     
 total        electrons   198.05702861926372     
 total        electrons   198.05702861926372     
 total        electrons   198.05702861926372     
 total        electrons   198.05702861926372     
 total        electrons   198.05702861926372     
 total        electrons   198.05702861926372     
 total        electrons   198.05702861926372     
 total        electrons   198.05702861926372     
 total        electrons   198.05702861926372     
 total        electrons   198.05702861926372     
 total        electrons   198.05702861926372     
 total        electrons   198.05702861926372     
 total        electrons   198.05702861926372     
 total        electrons   198.05702861926372     
 total        electrons   198.05702861926372     
 total        electrons   198.05702861926372     
 total        electrons   198.05702861926372     
Note: The following floating-point exceptions are signalling: IEEE_OVERFLOW_FLAG
Note: The following floating-point exceptions are signalling: IEEE_OVERFLOW_FLAG
Note: The following floating-point exceptions are signalling: IEEE_OVERFLOW_FLAG
Note: The following floating-point exceptions are signalling: IEEE_OVERFLOW_FLAG
Note: The following floating-point exceptions are signalling: IEEE_OVERFLOW_FLAG
Note: The following floating-point exceptions are signalling: IEEE_OVERFLOW_FLAG
Note: The following floating-point exceptions are signalling: IEEE_OVERFLOW_FLAG
Note: The following floating-point exceptions are signalling: IEEE_OVERFLOW_FLAG
Note: The following floating-point exceptions are signalling: IEEE_OVERFLOW_FLAG
Note: The following floating-point exceptions are signalling: IEEE_OVERFLOW_FLAG
Note: The following floating-point exceptions are signalling: IEEE_OVERFLOW_FLAG
Note: The following floating-point exceptions are signalling: IEEE_OVERFLOW_FLAG
Note: The following floating-point exceptions are signalling: IEEE_OVERFLOW_FLAG
Note: The following floating-point exceptions are signalling: IEEE_OVERFLOW_FLAG
Note: The following floating-point exceptions are signalling: IEEE_OVERFLOW_FLAG
Note: The following floating-point exceptions are signalling: IEEE_OVERFLOW_FLAG
Note: The following floating-point exceptions are signalling: IEEE_OVERFLOW_FLAG
Note: The following floating-point exceptions are signalling: IEEE_OVERFLOW_FLAG
Note: The following floating-point exceptions are signalling: IEEE_OVERFLOW_FLAG
Note: The following floating-point exceptions are signalling: IEEE_OVERFLOW_FLAG
Note: The following floating-point exceptions are signalling: IEEE_OVERFLOW_FLAG
Note: The following floating-point exceptions are signalling: IEEE_OVERFLOW_FLAG
Note: The following floating-point exceptions are signalling: IEEE_OVERFLOW_FLAG
Note: The following floating-point exceptions are signalling: IEEE_OVERFLOW_FLAG
Note: The following floating-point exceptions are signalling: IEEE_OVERFLOW_FLAG
Note: The following floating-point exceptions are signalling: IEEE_OVERFLOW_FLAG
Note: The following floating-point exceptions are signalling: IEEE_OVERFLOW_FLAG
Note: The following floating-point exceptions are signalling: IEEE_OVERFLOW_FLAG
Note: The following floating-point exceptions are signalling: IEEE_OVERFLOW_FLAG
Note: The following floating-point exceptions are signalling: IEEE_OVERFLOW_FLAG
Note: The following floating-point exceptions are signalling: IEEE_OVERFLOW_FLAG
Note: The following floating-point exceptions are signalling: IEEE_OVERFLOW_FLAG
Note: The following floating-point exceptions are signalling: IEEE_OVERFLOW_FLAG
Note: The following floating-point exceptions are signalling: IEEE_OVERFLOW_FLAG
Note: The following floating-point exceptions are signalling: IEEE_OVERFLOW_FLAG
Note: The following floating-point exceptions are signalling: IEEE_OVERFLOW_FLAG
Note: The following floating-point exceptions are signalling: IEEE_OVERFLOW_FLAG
Note: The following floating-point exceptions are signalling: IEEE_OVERFLOW_FLAG
Note: The following floating-point exceptions are signalling: IEEE_OVERFLOW_FLAG
Note: The following floating-point exceptions are signalling: IEEE_OVERFLOW_FLAG
Note: The following floating-point exceptions are signalling: IEEE_OVERFLOW_FLAG
Note: The following floating-point exceptions are signalling: IEEE_OVERFLOW_FLAG
Note: The following floating-point exceptions are signalling: IEEE_OVERFLOW_FLAG
Note: The following floating-point exceptions are signalling: IEEE_OVERFLOW_FLAG
Note: The following floating-point exceptions are signalling: IEEE_OVERFLOW_FLAG
Note: The following floating-point exceptions are signalling: IEEE_OVERFLOW_FLAG
Note: The following floating-point exceptions are signalling: IEEE_OVERFLOW_FLAG
Note: The following floating-point exceptions are signalling: IEEE_OVERFLOW_FLAG
Note: The following floating-point exceptions are signalling: IEEE_OVERFLOW_FLAG
Note: The following floating-point exceptions are signalling: IEEE_OVERFLOW_FLAG
Note: The following floating-point exceptions are signalling: IEEE_OVERFLOW_FLAG
Note: The following floating-point exceptions are signalling: IEEE_OVERFLOW_FLAG
Note: The following floating-point exceptions are signalling: IEEE_OVERFLOW_FLAG
Note: The following floating-point exceptions are signalling: IEEE_OVERFLOW_FLAG
