   75   75   85    1
  0.2059393E+02  0.1036705E-08  0.2428040E-08  0.6136055E-09  0.5000000E-15
   1.0000000000000000E-004
  CAR 
 Name                                    
    279     23    180

  0.3742002E-15  0.1262379E-14  0.3742002E-15  0.2222222E-01
    1      -13.942328   1.000000
    2      -12.805460   1.000000
    3      -12.752370   1.000000
    4      -12.743643   1.000000
    5      -11.808991   1.000000
    6      -11.778722   1.000000
    7      -11.580008   1.000000
    8      -11.397348   1.000000
    9      -11.372605   1.000000
   10      -11.345382   1.000000
   11      -11.212887   1.000000
   12      -10.923432   1.000000
   13      -10.876887   1.000000
   14      -10.605398   1.000000
   15      -10.595853   1.000000
   16      -10.407903   1.000000
   17      -10.322746   1.000000
   18      -10.096321   1.000000
   19      -10.031256   1.000000
   20       -9.926389   1.000000
   21       -9.566643   1.000000
   22       -9.514678   1.000000
   23       -9.455124   1.000000
   24       -9.404640   1.000000
   25       -9.067069   1.000000
   26       -8.900383   1.000000
   27       -8.734357   1.000000
   28       -8.549417   1.000000
   29       -8.353665   1.000000
   30       -8.089610   1.000000
   31       -8.080818   1.000000
   32       -7.766043   1.000000
   33       -7.705255   1.000000
   34       -7.690437   1.000000
   35       -7.574577   1.000000
   36       -7.138533   1.000000
   37       -7.122976   1.000000
   38       -6.950944   1.000000
   39       -6.693914   1.000000
   40       -6.650746   1.000000
   41       -6.630256   1.000000
   42       -6.625380   1.000000
   43       -6.535531   1.000000
   44       -6.383376   1.000000
   45       -6.351822   1.000000
   46       -6.232016   1.000000
   47       -6.120107   1.000000
   48       -6.077359   1.000000
   49       -6.070755   1.000000
   50       -6.028087   1.000000
   51       -6.004730   1.000000
   52       -5.745710   1.000000
   53       -5.700643   1.000000
   54       -5.599020   1.000000
   55       -5.561360   1.000000
   56       -5.554287   1.000000
   57       -5.436730   1.000000
   58       -5.343861   1.000000
   59       -5.291200   1.000000
   60       -5.187399   1.000000
   61       -5.163336   1.000000
   62       -5.116900   1.000000
   63       -4.988799   1.000000
   64       -4.667255   1.000000
   65       -4.624278   1.000000
   66       -4.495061   1.000000
   67       -4.472337   1.000000
   68       -4.450741   1.000000
   69       -4.382374   1.000000
   70       -4.144339   1.000000
   71       -4.077538   1.000000
   72       -3.978159   1.000000
   73       -3.952706   1.000000
   74       -3.927082   1.000000
   75       -3.896344   1.000000
   76       -3.879054   1.000000
   77       -3.859370   1.000000
   78       -3.828717   1.000000
   79       -3.799110   1.000000
   80       -3.633064   1.000000
   81       -3.610849   1.000000
   82       -3.536150   1.000000
   83       -3.506961   1.000000
   84       -3.496684   1.000000
   85       -3.434914   1.000000
   86       -3.429766   1.000000
   87       -3.429103   1.000000
   88       -3.419285   1.000000
   89       -3.391159   1.000000
   90       -3.324573   1.000000
   91       -3.317199   1.000000
   92       -3.187712   1.000000
   93       -3.114777   1.000000
   94       -2.967053   1.000000
   95       -2.877005   1.000000
   96       -2.859912   1.000000
   97       -2.856899   1.000000
   98       -2.672994   1.000000
   99       -2.638802   1.000000
  100       -2.525750   1.000000
  101       -2.355673   1.000000
  102       -2.259932   1.000000
  103       -2.237224   1.000000
  104       -2.204493   1.000000
  105       -2.157083   1.000000
  106       -2.071526   1.000000
  107       -1.989230   1.000000
  108       -1.979922   1.000000
  109       -1.962252   1.000000
  110       -1.935046   1.000000
  111       -1.892299   1.000000
  112       -1.865999   1.000000
  113       -1.687122   1.000000
  114       -1.681861   1.000000
  115       -1.652937   1.000000
  116       -1.519735   1.000000
  117       -1.498738   1.000000
  118       -1.468783   1.000000
  119       -1.350366   1.000000
  120       -1.339715   1.000000
  121       -1.312837   1.000000
  122       -1.057144   1.000000
  123       -0.913729   1.000000
  124       -0.855179   1.000000
  125       -0.734761   1.000000
  126       -0.591795   1.000000
  127       -0.495772   1.000000
  128       -0.392254   1.000000
  129       -0.361520   1.000000
  130       -0.248161   1.000000
  131        0.000990   1.000000
  132        0.007738   1.000000
  133        0.031433   1.000000
  134        0.181177   1.000576
  135        0.349897   1.020884
  136        0.361832   1.000448
  137        0.388039   0.911706
  138        0.438997   0.560987
  139        0.473534   0.278169
  140        0.552971  -0.030786
  141        0.560392  -0.034270
  142        0.621766  -0.016202
  143        0.682709  -0.002073
  144        0.698540  -0.001044
  145        0.703178  -0.000844
  146        0.714277  -0.000498
  147        0.723821  -0.000309
  148        0.761445  -0.000039
  149        0.923400  -0.000000
  150        0.944865  -0.000000
  151        1.089413  -0.000000
  152        1.150491  -0.000000
  153        1.163012  -0.000000
  154        1.192063  -0.000000
  155        1.257204  -0.000000
  156        1.291287  -0.000000
  157        1.307981  -0.000000
  158        1.387026  -0.000000
  159        1.400734  -0.000000
  160        1.459798  -0.000000
  161        1.468692  -0.000000
  162        1.472305  -0.000000
  163        1.486342  -0.000000
  164        1.495209  -0.000000
  165        1.498119  -0.000000
  166        1.625262  -0.000000
  167        1.684350  -0.000000
  168        1.700581  -0.000000
  169        1.739328  -0.000000
  170        1.750915  -0.000000
  171        1.769129  -0.000000
  172        1.775443  -0.000000
  173        1.808167  -0.000000
  174        1.816028  -0.000000
  175        1.849571  -0.000000
  176        1.868635  -0.000000
  177        1.879610  -0.000000
  178        2.019333  -0.000000
  179        2.033590  -0.000000
  180        2.080777  -0.000000

  0.2000000E+00  0.1262379E-14  0.3742002E-15  0.4444444E-01
    1      -13.893205   1.000000
    2      -13.177252   1.000000
    3      -12.727943   1.000000
    4      -12.282239   1.000000
    5      -12.062492   1.000000
    6      -11.788964   1.000000
    7      -11.539129   1.000000
    8      -11.346304   1.000000
    9      -11.249089   1.000000
   10      -11.207619   1.000000
   11      -11.167460   1.000000
   12      -11.007834   1.000000
   13      -10.767848   1.000000
   14      -10.695264   1.000000
   15      -10.597882   1.000000
   16      -10.503085   1.000000
   17      -10.496926   1.000000
   18      -10.313653   1.000000
   19      -10.051419   1.000000
   20       -9.958544   1.000000
   21       -9.540074   1.000000
   22       -9.393235   1.000000
   23       -9.385290   1.000000
   24       -9.337475   1.000000
   25       -9.134465   1.000000
   26       -9.010141   1.000000
   27       -8.554142   1.000000
   28       -8.394466   1.000000
   29       -8.230077   1.000000
   30       -8.090445   1.000000
   31       -8.073432   1.000000
   32       -7.992182   1.000000
   33       -7.643126   1.000000
   34       -7.585060   1.000000
   35       -7.474187   1.000000
   36       -7.335910   1.000000
   37       -7.152611   1.000000
   38       -7.083892   1.000000
   39       -6.846925   1.000000
   40       -6.692957   1.000000
   41       -6.605171   1.000000
   42       -6.567127   1.000000
   43       -6.547708   1.000000
   44       -6.401006   1.000000
   45       -6.377861   1.000000
   46       -6.321912   1.000000
   47       -6.109696   1.000000
   48       -6.070977   1.000000
   49       -5.986413   1.000000
   50       -5.962429   1.000000
   51       -5.938438   1.000000
   52       -5.890069   1.000000
   53       -5.669182   1.000000
   54       -5.616050   1.000000
   55       -5.536556   1.000000
   56       -5.299039   1.000000
   57       -5.278897   1.000000
   58       -5.257471   1.000000
   59       -5.213862   1.000000
   60       -5.183292   1.000000
   61       -5.155796   1.000000
   62       -5.139347   1.000000
   63       -5.081787   1.000000
   64       -4.833608   1.000000
   65       -4.737502   1.000000
   66       -4.551606   1.000000
   67       -4.438902   1.000000
   68       -4.429278   1.000000
   69       -4.369211   1.000000
   70       -4.158435   1.000000
   71       -4.070538   1.000000
   72       -4.025491   1.000000
   73       -3.977165   1.000000
   74       -3.966327   1.000000
   75       -3.945629   1.000000
   76       -3.867989   1.000000
   77       -3.814061   1.000000
   78       -3.799791   1.000000
   79       -3.747847   1.000000
   80       -3.601224   1.000000
   81       -3.597332   1.000000
   82       -3.557002   1.000000
   83       -3.543927   1.000000
   84       -3.505528   1.000000
   85       -3.485400   1.000000
   86       -3.443123   1.000000
   87       -3.429044   1.000000
   88       -3.395699   1.000000
   89       -3.373274   1.000000
   90       -3.369716   1.000000
   91       -3.244610   1.000000
   92       -3.196772   1.000000
   93       -3.115358   1.000000
   94       -3.026311   1.000000
   95       -2.906481   1.000000
   96       -2.833980   1.000000
   97       -2.759557   1.000000
   98       -2.721103   1.000000
   99       -2.636886   1.000000
  100       -2.557226   1.000000
  101       -2.416787   1.000000
  102       -2.329563   1.000000
  103       -2.227649   1.000000
  104       -2.174433   1.000000
  105       -2.130458   1.000000
  106       -2.102693   1.000000
  107       -2.023238   1.000000
  108       -1.922044   1.000000
  109       -1.892719   1.000000
  110       -1.862678   1.000000
  111       -1.844868   1.000000
  112       -1.797173   1.000000
  113       -1.759021   1.000000
  114       -1.662227   1.000000
  115       -1.553831   1.000000
  116       -1.526221   1.000000
  117       -1.453396   1.000000
  118       -1.372709   1.000000
  119       -1.356638   1.000000
  120       -1.298263   1.000000
  121       -1.206713   1.000000
  122       -1.077122   1.000000
  123       -0.973477   1.000000
  124       -0.853505   1.000000
  125       -0.746616   1.000000
  126       -0.698408   1.000000
  127       -0.572752   1.000000
  128       -0.385243   1.000000
  129       -0.365080   1.000000
  130       -0.331730   1.000000
  131       -0.201370   1.000000
  132       -0.120486   1.000000
  133       -0.012078   1.000000
  134        0.093428   1.000004
  135        0.211202   1.002202
  136        0.256785   1.011076
  137        0.336708   1.032393
  138        0.410978   0.778736
  139        0.500424   0.107716
  140        0.525236   0.012526
  141        0.639251  -0.009949
  142        0.656184  -0.005719
  143        0.733199  -0.000190
  144        0.743794  -0.000107
  145        0.774873  -0.000017
  146        0.786743  -0.000008
  147        0.832537  -0.000000
  148        0.835981  -0.000000
  149        0.877807  -0.000000
  150        0.926112  -0.000000
  151        1.133454  -0.000000
  152        1.195757  -0.000000
  153        1.200010  -0.000000
  154        1.243330  -0.000000
  155        1.268479  -0.000000
  156        1.342032  -0.000000
  157        1.345888  -0.000000
  158        1.413269  -0.000000
  159        1.428678  -0.000000
  160        1.431884  -0.000000
  161        1.478699  -0.000000
  162        1.513823  -0.000000
  163        1.517075  -0.000000
  164        1.528505  -0.000000
  165        1.551195  -0.000000
  166        1.639826  -0.000000
  167        1.685079  -0.000000
  168        1.694935  -0.000000
  169        1.697846  -0.000000
  170        1.743439  -0.000000
  171        1.768118  -0.000000
  172        1.774659  -0.000000
  173        1.832401  -0.000000
  174        1.872546  -0.000000
  175        1.892672  -0.000000
  176        1.927553  -0.000000
  177        1.936288  -0.000000
  178        2.056156  -0.000000
  179        2.075291  -0.000000
  180        2.114518  -0.000000

  0.4000000E+00  0.1262379E-14  0.3742002E-15  0.4444444E-01
    1      -13.746951   1.000000
    2      -13.506240   1.000000
    3      -12.596086   1.000000
    4      -12.366474   1.000000
    5      -11.741559   1.000000
    6      -11.727503   1.000000
    7      -11.657303   1.000000
    8      -11.275494   1.000000
    9      -11.186193   1.000000
   10      -11.135986   1.000000
   11      -11.080052   1.000000
   12      -11.004968   1.000000
   13      -10.943899   1.000000
   14      -10.716463   1.000000
   15      -10.660631   1.000000
   16      -10.610201   1.000000
   17      -10.576020   1.000000
   18      -10.325873   1.000000
   19      -10.233892   1.000000
   20       -9.984057   1.000000
   21       -9.761899   1.000000
   22       -9.385393   1.000000
   23       -9.357308   1.000000
   24       -9.189308   1.000000
   25       -9.109971   1.000000
   26       -8.825282   1.000000
   27       -8.360157   1.000000
   28       -8.341697   1.000000
   29       -8.181144   1.000000
   30       -8.088850   1.000000
   31       -7.957395   1.000000
   32       -7.776845   1.000000
   33       -7.684021   1.000000
   34       -7.645967   1.000000
   35       -7.566964   1.000000
   36       -7.407923   1.000000
   37       -7.276207   1.000000
   38       -7.226324   1.000000
   39       -7.049516   1.000000
   40       -6.901293   1.000000
   41       -6.747748   1.000000
   42       -6.475643   1.000000
   43       -6.419703   1.000000
   44       -6.393700   1.000000
   45       -6.369629   1.000000
   46       -6.270579   1.000000
   47       -6.236811   1.000000
   48       -6.093082   1.000000
   49       -5.912124   1.000000
   50       -5.812252   1.000000
   51       -5.783829   1.000000
   52       -5.749038   1.000000
   53       -5.661923   1.000000
   54       -5.645556   1.000000
   55       -5.604588   1.000000
   56       -5.438719   1.000000
   57       -5.376604   1.000000
   58       -5.271745   1.000000
   59       -5.143700   1.000000
   60       -5.090781   1.000000
   61       -5.045098   1.000000
   62       -4.992781   1.000000
   63       -4.894197   1.000000
   64       -4.814933   1.000000
   65       -4.725022   1.000000
   66       -4.619722   1.000000
   67       -4.575209   1.000000
   68       -4.458638   1.000000
   69       -4.307676   1.000000
   70       -4.256775   1.000000
   71       -4.192496   1.000000
   72       -4.124211   1.000000
   73       -4.049778   1.000000
   74       -3.974119   1.000000
   75       -3.918662   1.000000
   76       -3.910597   1.000000
   77       -3.781766   1.000000
   78       -3.725198   1.000000
   79       -3.717193   1.000000
   80       -3.694522   1.000000
   81       -3.666172   1.000000
   82       -3.621581   1.000000
   83       -3.588689   1.000000
   84       -3.555224   1.000000
   85       -3.490272   1.000000
   86       -3.430692   1.000000
   87       -3.384877   1.000000
   88       -3.337577   1.000000
   89       -3.292601   1.000000
   90       -3.237770   1.000000
   91       -3.211234   1.000000
   92       -3.194723   1.000000
   93       -3.096148   1.000000
   94       -2.987237   1.000000
   95       -2.966361   1.000000
   96       -2.882515   1.000000
   97       -2.843711   1.000000
   98       -2.760996   1.000000
   99       -2.598120   1.000000
  100       -2.560331   1.000000
  101       -2.450991   1.000000
  102       -2.318595   1.000000
  103       -2.302469   1.000000
  104       -2.199019   1.000000
  105       -2.102972   1.000000
  106       -2.096270   1.000000
  107       -2.046110   1.000000
  108       -1.938479   1.000000
  109       -1.872086   1.000000
  110       -1.848206   1.000000
  111       -1.776525   1.000000
  112       -1.711531   1.000000
  113       -1.596340   1.000000
  114       -1.552273   1.000000
  115       -1.516553   1.000000
  116       -1.445089   1.000000
  117       -1.424029   1.000000
  118       -1.251877   1.000000
  119       -1.182752   1.000000
  120       -1.171408   1.000000
  121       -1.051691   1.000000
  122       -1.022125   1.000000
  123       -1.002153   1.000000
  124       -0.971072   1.000000
  125       -0.852092   1.000000
  126       -0.791221   1.000000
  127       -0.694250   1.000000
  128       -0.627092   1.000000
  129       -0.607960   1.000000
  130       -0.482971   1.000000
  131       -0.341680   1.000000
  132       -0.327186   1.000000
  133       -0.036853   1.000000
  134        0.005705   1.000000
  135        0.153520   1.000140
  136        0.221967   1.003382
  137        0.393450   0.884956
  138        0.412647   0.767179
  139        0.426671   0.662020
  140        0.516934   0.037675
  141        0.562781  -0.034873
  142        0.654576  -0.006048
  143        0.718514  -0.000404
  144        0.761137  -0.000040
  145        0.790242  -0.000006
  146        0.809352  -0.000002
  147        0.834704  -0.000000
  148        0.923357  -0.000000
  149        1.034993  -0.000000
  150        1.078363  -0.000000
  151        1.093825  -0.000000
  152        1.212542  -0.000000
  153        1.249298  -0.000000
  154        1.291000  -0.000000
  155        1.308176  -0.000000
  156        1.362943  -0.000000
  157        1.459757  -0.000000
  158        1.510969  -0.000000
  159        1.527411  -0.000000
  160        1.541615  -0.000000
  161        1.557212  -0.000000
  162        1.568358  -0.000000
  163        1.576619  -0.000000
  164        1.601653  -0.000000
  165        1.675018  -0.000000
  166        1.678816  -0.000000
  167        1.700592  -0.000000
  168        1.706503  -0.000000
  169        1.713270  -0.000000
  170        1.753915  -0.000000
  171        1.805951  -0.000000
  172        1.808564  -0.000000
  173        1.876070  -0.000000
  174        1.892865  -0.000000
  175        1.896482  -0.000000
  176        1.904964  -0.000000
  177        1.950681  -0.000000
  178        1.962988  -0.000000
  179        2.068529  -0.000000
  180        2.096707  -0.000000

  0.3742002E-15  0.1262379E-14  0.1111111E+00  0.4444444E-01
    1      -13.896951   1.000000
    2      -12.769224   1.000000
    3      -12.715690   1.000000
    4      -12.709065   1.000000
    5      -11.912076   1.000000
    6      -11.752278   1.000000
    7      -11.552243   1.000000
    8      -11.442839   1.000000
    9      -11.419215   1.000000
   10      -11.348817   1.000000
   11      -11.247113   1.000000
   12      -10.932535   1.000000
   13      -10.892604   1.000000
   14      -10.630062   1.000000
   15      -10.593303   1.000000
   16      -10.384029   1.000000
   17      -10.322224   1.000000
   18      -10.074045   1.000000
   19      -10.008936   1.000000
   20       -9.907772   1.000000
   21       -9.549986   1.000000
   22       -9.545713   1.000000
   23       -9.436885   1.000000
   24       -9.430933   1.000000
   25       -9.062584   1.000000
   26       -8.881664   1.000000
   27       -8.763839   1.000000
   28       -8.569169   1.000000
   29       -8.348646   1.000000
   30       -8.069346   1.000000
   31       -7.947631   1.000000
   32       -7.823699   1.000000
   33       -7.704532   1.000000
   34       -7.702167   1.000000
   35       -7.584813   1.000000
   36       -7.243987   1.000000
   37       -7.171810   1.000000
   38       -6.925783   1.000000
   39       -6.683086   1.000000
   40       -6.604443   1.000000
   41       -6.579713   1.000000
   42       -6.563911   1.000000
   43       -6.542793   1.000000
   44       -6.367260   1.000000
   45       -6.341979   1.000000
   46       -6.233923   1.000000
   47       -6.136488   1.000000
   48       -6.110626   1.000000
   49       -6.087126   1.000000
   50       -6.054363   1.000000
   51       -6.011707   1.000000
   52       -5.693467   1.000000
   53       -5.678989   1.000000
   54       -5.590473   1.000000
   55       -5.581693   1.000000
   56       -5.546768   1.000000
   57       -5.340908   1.000000
   58       -5.331159   1.000000
   59       -5.222016   1.000000
   60       -5.181580   1.000000
   61       -5.150485   1.000000
   62       -5.095623   1.000000
   63       -4.947816   1.000000
   64       -4.620002   1.000000
   65       -4.590953   1.000000
   66       -4.484783   1.000000
   67       -4.461530   1.000000
   68       -4.418350   1.000000
   69       -4.379595   1.000000
   70       -4.153333   1.000000
   71       -4.059845   1.000000
   72       -4.009610   1.000000
   73       -3.961413   1.000000
   74       -3.958575   1.000000
   75       -3.911028   1.000000
   76       -3.878295   1.000000
   77       -3.857441   1.000000
   78       -3.853507   1.000000
   79       -3.843459   1.000000
   80       -3.741935   1.000000
   81       -3.706426   1.000000
   82       -3.670787   1.000000
   83       -3.600556   1.000000
   84       -3.575618   1.000000
   85       -3.561380   1.000000
   86       -3.492072   1.000000
   87       -3.477901   1.000000
   88       -3.409597   1.000000
   89       -3.402164   1.000000
   90       -3.302444   1.000000
   91       -3.298081   1.000000
   92       -3.194667   1.000000
   93       -3.066230   1.000000
   94       -2.904049   1.000000
   95       -2.859521   1.000000
   96       -2.835732   1.000000
   97       -2.796204   1.000000
   98       -2.644027   1.000000
   99       -2.543559   1.000000
  100       -2.459485   1.000000
  101       -2.384677   1.000000
  102       -2.345806   1.000000
  103       -2.311515   1.000000
  104       -2.206680   1.000000
  105       -2.153210   1.000000
  106       -2.142400   1.000000
  107       -2.040556   1.000000
  108       -1.935530   1.000000
  109       -1.929523   1.000000
  110       -1.898892   1.000000
  111       -1.880983   1.000000
  112       -1.841048   1.000000
  113       -1.724936   1.000000
  114       -1.700551   1.000000
  115       -1.611480   1.000000
  116       -1.559384   1.000000
  117       -1.515562   1.000000
  118       -1.427019   1.000000
  119       -1.393929   1.000000
  120       -1.250140   1.000000
  121       -1.207256   1.000000
  122       -1.085505   1.000000
  123       -0.866244   1.000000
  124       -0.853581   1.000000
  125       -0.810864   1.000000
  126       -0.596958   1.000000
  127       -0.478112   1.000000
  128       -0.443872   1.000000
  129       -0.415244   1.000000
  130       -0.211990   1.000000
  131       -0.109870   1.000000
  132       -0.095782   1.000000
  133        0.018995   1.000000
  134        0.213120   1.002382
  135        0.343876   1.027396
  136        0.354921   1.013591
  137        0.375706   0.961672
  138        0.378808   0.950531
  139        0.487430   0.181952
  140        0.508264   0.071045
  141        0.525192   0.012641
  142        0.534908  -0.009051
  143        0.539005  -0.015922
  144        0.708256  -0.000665
  145        0.709357  -0.000631
  146        0.721729  -0.000344
  147        0.882119  -0.000000
  148        0.910220  -0.000000
  149        0.990489  -0.000000
  150        1.049497  -0.000000
  151        1.103173  -0.000000
  152        1.172410  -0.000000
  153        1.199827  -0.000000
  154        1.204839  -0.000000
  155        1.244408  -0.000000
  156        1.308015  -0.000000
  157        1.324580  -0.000000
  158        1.348054  -0.000000
  159        1.387426  -0.000000
  160        1.438422  -0.000000
  161        1.441212  -0.000000
  162        1.471363  -0.000000
  163        1.510079  -0.000000
  164        1.515969  -0.000000
  165        1.572411  -0.000000
  166        1.635567  -0.000000
  167        1.664898  -0.000000
  168        1.694924  -0.000000
  169        1.723253  -0.000000
  170        1.735353  -0.000000
  171        1.743896  -0.000000
  172        1.759923  -0.000000
  173        1.814319  -0.000000
  174        1.839976  -0.000000
  175        1.892528  -0.000000
  176        1.893198  -0.000000
  177        1.968060  -0.000000
  178        1.984655  -0.000000
  179        1.985722  -0.000000
  180        2.045054  -0.000000

  0.2000000E+00  0.1262379E-14  0.1111111E+00  0.4444444E-01
    1      -13.848226   1.000000
    2      -13.138518   1.000000
    3      -12.690289   1.000000
    4      -12.252879   1.000000
    5      -12.030825   1.000000
    6      -11.891863   1.000000
    7      -11.601319   1.000000
    8      -11.337081   1.000000
    9      -11.272284   1.000000
   10      -11.233358   1.000000
   11      -11.167544   1.000000
   12      -11.032290   1.000000
   13      -10.769695   1.000000
   14      -10.692236   1.000000
   15      -10.613185   1.000000
   16      -10.485133   1.000000
   17      -10.478720   1.000000
   18      -10.319430   1.000000
   19      -10.041282   1.000000
   20       -9.947993   1.000000
   21       -9.525988   1.000000
   22       -9.416353   1.000000
   23       -9.380236   1.000000
   24       -9.327489   1.000000
   25       -9.130135   1.000000
   26       -9.009062   1.000000
   27       -8.567809   1.000000
   28       -8.395397   1.000000
   29       -8.241415   1.000000
   30       -8.095508   1.000000
   31       -8.055239   1.000000
   32       -7.863428   1.000000
   33       -7.689992   1.000000
   34       -7.626425   1.000000
   35       -7.468869   1.000000
   36       -7.394777   1.000000
   37       -7.134394   1.000000
   38       -7.026836   1.000000
   39       -6.844522   1.000000
   40       -6.690386   1.000000
   41       -6.636281   1.000000
   42       -6.575078   1.000000
   43       -6.498331   1.000000
   44       -6.424425   1.000000
   45       -6.386804   1.000000
   46       -6.364358   1.000000
   47       -6.199539   1.000000
   48       -6.056250   1.000000
   49       -6.022653   1.000000
   50       -5.950805   1.000000
   51       -5.825140   1.000000
   52       -5.784595   1.000000
   53       -5.689574   1.000000
   54       -5.616590   1.000000
   55       -5.547401   1.000000
   56       -5.307227   1.000000
   57       -5.260127   1.000000
   58       -5.213594   1.000000
   59       -5.191464   1.000000
   60       -5.164188   1.000000
   61       -5.126731   1.000000
   62       -5.078176   1.000000
   63       -5.046618   1.000000
   64       -4.807359   1.000000
   65       -4.690616   1.000000
   66       -4.525467   1.000000
   67       -4.440702   1.000000
   68       -4.391455   1.000000
   69       -4.332005   1.000000
   70       -4.161887   1.000000
   71       -4.076909   1.000000
   72       -4.024881   1.000000
   73       -4.011836   1.000000
   74       -3.950825   1.000000
   75       -3.939106   1.000000
   76       -3.902896   1.000000
   77       -3.878864   1.000000
   78       -3.826393   1.000000
   79       -3.794711   1.000000
   80       -3.723673   1.000000
   81       -3.687038   1.000000
   82       -3.641114   1.000000
   83       -3.609984   1.000000
   84       -3.568469   1.000000
   85       -3.551914   1.000000
   86       -3.511501   1.000000
   87       -3.488272   1.000000
   88       -3.421744   1.000000
   89       -3.352277   1.000000
   90       -3.296295   1.000000
   91       -3.238657   1.000000
   92       -3.165720   1.000000
   93       -3.117121   1.000000
   94       -2.964344   1.000000
   95       -2.874923   1.000000
   96       -2.807385   1.000000
   97       -2.744357   1.000000
   98       -2.711634   1.000000
   99       -2.617731   1.000000
  100       -2.551501   1.000000
  101       -2.408942   1.000000
  102       -2.346175   1.000000
  103       -2.244743   1.000000
  104       -2.189655   1.000000
  105       -2.156317   1.000000
  106       -2.111306   1.000000
  107       -2.054640   1.000000
  108       -1.972145   1.000000
  109       -1.912835   1.000000
  110       -1.862837   1.000000
  111       -1.818189   1.000000
  112       -1.748484   1.000000
  113       -1.687261   1.000000
  114       -1.661885   1.000000
  115       -1.603781   1.000000
  116       -1.545314   1.000000
  117       -1.502345   1.000000
  118       -1.401511   1.000000
  119       -1.309109   1.000000
  120       -1.294801   1.000000
  121       -1.187154   1.000000
  122       -1.113675   1.000000
  123       -0.970297   1.000000
  124       -0.855113   1.000000
  125       -0.811216   1.000000
  126       -0.697480   1.000000
  127       -0.585046   1.000000
  128       -0.546764   1.000000
  129       -0.314428   1.000000
  130       -0.293422   1.000000
  131       -0.154708   1.000000
  132       -0.013119   1.000000
  133        0.066445   1.000001
  134        0.186227   1.000732
  135        0.224256   1.003691
  136        0.245421   1.007789
  137        0.281441   1.020871
  138        0.318064   1.034997
  139        0.434402   0.599285
  140        0.515566   0.042447
  141        0.579477  -0.033918
  142        0.603973  -0.024108
  143        0.629720  -0.013124
  144        0.710308  -0.000603
  145        0.746395  -0.000093
  146        0.754677  -0.000058
  147        0.819159  -0.000001
  148        0.985963  -0.000000
  149        1.016528  -0.000000
  150        1.070250  -0.000000
  151        1.092749  -0.000000
  152        1.155593  -0.000000
  153        1.196879  -0.000000
  154        1.274849  -0.000000
  155        1.328468  -0.000000
  156        1.351928  -0.000000
  157        1.383913  -0.000000
  158        1.400708  -0.000000
  159        1.424222  -0.000000
  160        1.431828  -0.000000
  161        1.458478  -0.000000
  162        1.493974  -0.000000
  163        1.496938  -0.000000
  164        1.553490  -0.000000
  165        1.598616  -0.000000
  166        1.608518  -0.000000
  167        1.660138  -0.000000
  168        1.673866  -0.000000
  169        1.735711  -0.000000
  170        1.743097  -0.000000
  171        1.766286  -0.000000
  172        1.781365  -0.000000
  173        1.798567  -0.000000