 running on   72 total cores
 distrk:  each k-point on   72 cores,    1 groups
 distr:  one band on   12 cores,    6 groups
 using from now: INCAR     
 vasp.5.4.4.18Apr17-6-g9f103f2a35 (build Dec  7 2020 12:43:57) complex           
 POSCAR found type information on POSCAR  Mo V  B  H 
 POSCAR found :  4 types and      75 ions
 scaLAPACK will be used
 LDA part: xc-table for Pade appr. of Perdew
 POSCAR, INCAR and KPOINTS ok, starting setup
 resort distribution
 resort distribution
 resort distribution
 resort distribution
 resort distribution
 resort distribution
 resort distribution
 resort distribution
 resort distribution
 resort distribution
 resort distribution
 resort distribution
 resort distribution
 resort distribution
 resort distribution
 resort distribution
 resort distribution
 resort distribution
 resort distribution
 resort distribution
 resort distribution
 resort distribution
 resort distribution
 resort distribution
 resort distribution
 resort distribution
 resort distribution
 resort distribution
 resort distribution
 resort distribution
 resort distribution
 resort distribution
 resort distribution
 resort distribution
 resort distribution
 resort distribution
 resort distribution
 resort distribution
 resort distribution
 resort distribution
 resort distribution
 resort distribution
 resort distribution
 resort distribution
 resort distribution
 resort distribution
 resort distribution
 resort distribution
 resort distribution
 resort distribution
 resort distribution
 resort distribution
 resort distribution
 resort distribution
 resort distribution
 resort distribution
 resort distribution
 resort distribution
 resort distribution
 resort distribution
 resort distribution
 resort distribution
 resort distribution
 resort distribution
 resort distribution
 resort distribution
 resort distribution
 resort distribution
 resort distribution
 resort distribution
 resort distribution
 resort distribution
 FFT: planning ...
 WAVECAR not read
 augmentation electrons   279.02614370326484     
 soft         electrons   0.0000000000000000     
 augmentation electrons   279.02614370326484     
 soft         electrons   0.0000000000000000     
 augmentation electrons   279.02614370326484     
 soft         electrons   0.0000000000000000     
 augmentation electrons   279.02614370326484     
 soft         electrons   0.0000000000000000     
 augmentation electrons   279.02614370326484     
 soft         electrons   0.0000000000000000     
 augmentation electrons   279.02614370326484     
 soft         electrons   0.0000000000000000     
 augmentation electrons   279.02614370326484     
 soft         electrons   0.0000000000000000     
 augmentation electrons   279.02614370326484     
 soft         electrons   0.0000000000000000     
 augmentation electrons   279.02614370326484     
 soft         electrons   0.0000000000000000     
 augmentation electrons   279.02614370326484     
 soft         electrons   0.0000000000000000     
 augmentation electrons   279.02614370326484     
 soft         electrons   0.0000000000000000     
 augmentation electrons   279.02614370326484     
 soft         electrons   0.0000000000000000     
 augmentation electrons   279.02614370326484     
 soft         electrons   0.0000000000000000     
 augmentation electrons   279.02614370326484     
 soft         electrons   0.0000000000000000     
 augmentation electrons   279.02614370326484     
 soft         electrons   0.0000000000000000     
 augmentation electrons   279.02614370326484     
 soft         electrons   0.0000000000000000     
 augmentation electrons   279.02614370326484     
 soft         electrons   0.0000000000000000     
 augmentation electrons   279.02614370326484     
 soft         electrons   0.0000000000000000     
 augmentation electrons   279.02614370326484     
 soft         electrons   0.0000000000000000     
 augmentation electrons   279.02614370326484     
 soft         electrons   0.0000000000000000     
 augmentation electrons   279.02614370326484     
 soft         electrons   0.0000000000000000     
 augmentation electrons   279.02614370326484     
 soft         electrons   0.0000000000000000     
 augmentation electrons   279.02614370326484     
 soft         electrons   0.0000000000000000     
 augmentation electrons   279.02614370326484     
 soft         electrons   0.0000000000000000     
 augmentation electrons   279.02614370326484     
 soft         electrons   0.0000000000000000     
 augmentation electrons   279.02614370326484     
 soft         electrons   0.0000000000000000     
 augmentation electrons   279.02614370326484     
 soft         electrons   0.0000000000000000     
 augmentation electrons   279.02614370326484     
 soft         electrons   0.0000000000000000     
 augmentation electrons   279.02614370326484     
 soft         electrons   0.0000000000000000     
 augmentation electrons   279.02614370326484     
 soft         electrons   0.0000000000000000     
 augmentation electrons   279.02614370326484     
 soft         electrons   0.0000000000000000     
 augmentation electrons   279.02614370326484     
 soft         electrons   0.0000000000000000     
 augmentation electrons   279.02614370326484     
 soft         electrons   0.0000000000000000     
 augmentation electrons   279.02614370326484     
 soft         electrons   0.0000000000000000     
 augmentation electrons   279.02614370326484     
 soft         electrons   0.0000000000000000     
 augmentation electrons   279.02614370326484     
 soft         electrons   0.0000000000000000     
 augmentation electrons   279.02614370326484     
 soft         electrons   0.0000000000000000     
 augmentation electrons   279.02614370326484     
 soft         electrons   0.0000000000000000     
 augmentation electrons   279.02614370326484     
 soft         electrons   0.0000000000000000     
 augmentation electrons   279.02614370326484     
 soft         electrons   0.0000000000000000     
 augmentation electrons   279.02614370326484     
 soft         electrons   0.0000000000000000     
 augmentation electrons   279.02614370326484     
 soft         electrons   0.0000000000000000     
 augmentation electrons   279.02614370326484     
 soft         electrons   0.0000000000000000     
 augmentation electrons   279.02614370326484     
 soft         electrons   0.0000000000000000     
 augmentation electrons   279.02614370326484     
 soft         electrons   0.0000000000000000     
 augmentation electrons   279.02614370326484     
 soft         electrons   0.0000000000000000     
 augmentation electrons   279.02614370326484     
 soft         electrons   0.0000000000000000     
 augmentation electrons   279.02614370326484     
 soft         electrons   0.0000000000000000     
 augmentation electrons   279.02614370326484     
 soft         electrons   0.0000000000000000     
 augmentation electrons   279.02614370326484     
 soft         electrons   0.0000000000000000     
 augmentation electrons   279.02614370326484     
 soft         electrons   0.0000000000000000     
 augmentation electrons   279.02614370326484     
 soft         electrons   0.0000000000000000     
 augmentation electrons   279.02614370326484     
 soft         electrons   0.0000000000000000     
 augmentation electrons   279.02614370326484     
 soft         electrons   0.0000000000000000     
 augmentation electrons   279.02614370326484     
 soft         electrons   0.0000000000000000     
 augmentation electrons   279.02614370326484     
 soft         electrons   0.0000000000000000     
 augmentation electrons   279.02614370326484     
 soft         electrons   0.0000000000000000     
 augmentation electrons   279.02614370326484     
 soft         electrons   0.0000000000000000     
 augmentation electrons   279.02614370326484     
 soft         electrons   0.0000000000000000     
 augmentation electrons   279.02614370326484     
 soft         electrons   0.0000000000000000     
 augmentation electrons   279.02614370326484     
 soft         electrons   0.0000000000000000     
 augmentation electrons   279.02614370326484     
 soft         electrons   0.0000000000000000     
 augmentation electrons   279.02614370326484     
 soft         electrons   0.0000000000000000     
 augmentation electrons   279.02614370326484     
 soft         electrons   0.0000000000000000     
 augmentation electrons   279.02614370326484     
 soft         electrons   0.0000000000000000     
 augmentation electrons   279.02614370326484     
 soft         electrons   0.0000000000000000     
 augmentation electrons   279.02614370326484     
 soft         electrons   0.0000000000000000     
 augmentation electrons   279.02614370326484     
 soft         electrons   0.0000000000000000     
 augmentation electrons   279.02614370326484     
 soft         electrons   0.0000000000000000     
 augmentation electrons   279.02614370326484     
 soft         electrons   0.0000000000000000     
 augmentation electrons   279.02614370326484     
 soft         electrons   0.0000000000000000     
 augmentation electrons   279.02614370326484     
 soft         electrons   0.0000000000000000     
 total        electrons   279.02614370326484     
 total        electrons   279.02614370326484     
 total        electrons   279.02614370326484     
 total        electrons   279.02614370326484     
 total        electrons   279.02614370326484     
 total        electrons   279.02614370326484     
 total        electrons   279.02614370326484     
 total        electrons   279.02614370326484     
 total        electrons   279.02614370326484     
 total        electrons   279.02614370326484     
 total        electrons   279.02614370326484     
 total        electrons   279.02614370326484     
 total        electrons   279.02614370326484     
 total        electrons   279.02614370326484     
 total        electrons   279.02614370326484     
 total        electrons   279.02614370326484     
 total        electrons   279.02614370326484     
 total        electrons   279.02614370326484     
 total        electrons   279.02614370326484     
 total        electrons   279.02614370326484     
 total        electrons   279.02614370326484     
 total        electrons   279.02614370326484     
 total        electrons   279.02614370326484     
 total        electrons   279.02614370326484     
 total        electrons   279.02614370326484     
 total        electrons   279.02614370326484     
 total        electrons   279.02614370326484     
 total        electrons   279.02614370326484     
 total        electrons   279.02614370326484     
 total        electrons   279.02614370326484     
 total        electrons   279.02614370326484     
 total        electrons   279.02614370326484     
 total        electrons   279.02614370326484     
 total        electrons   279.02614370326484     
 total        electrons   279.02614370326484     
 total        electrons   279.02614370326484     
 total        electrons   279.02614370326484     
 total        electrons   279.02614370326484     
 total        electrons   279.02614370326484     
 total        electrons   279.02614370326484     
 total        electrons   279.02614370326484     
 total        electrons   279.02614370326484     
 total        electrons   279.02614370326484     
 total        electrons   279.02614370326484     
 total        electrons   279.02614370326484     
 total        electrons   279.02614370326484     
 total        electrons   279.02614370326484     
 total        electrons   279.02614370326484     
 total        electrons   279.02614370326484     
 total        electrons   279.02614370326484     
 total        electrons   279.02614370326484     
 total        electrons   279.02614370326484     
 total        electrons   279.02614370326484     
 total        electrons   279.02614370326484     
 total        electrons   279.02614370326484     
 total        electrons   279.02614370326484     
 total        electrons   279.02614370326484     
 total        electrons   279.02614370326484     
 total        electrons   279.02614370326484     
 total        electrons   279.02614370326484     
 total        electrons   279.02614370326484     
 total        electrons   279.02614370326484     
 total        electrons   279.02614370326484     
 total        electrons   279.02614370326484     
 total        electrons   279.02614370326484     
 total        electrons   279.02614370326484     
 total        electrons   279.02614370326484     
 total        electrons   279.02614370326484     
 total        electrons   279.02614370326484     
 total        electrons   279.02614370326484     
 total        electrons   279.02614370326484     
 total        electrons   279.02614370326484     
 augmentation electrons   864.17172981569820     
 soft         electrons   0.0000000000000000     
 augmentation electrons   864.17172981569820     
 soft         electrons   0.0000000000000000     
 augmentation electrons   864.17172981569820     
 soft         electrons   0.0000000000000000     
 augmentation electrons   864.17172981569820     
 soft         electrons   0.0000000000000000     
 augmentation electrons   864.17172981569820     
 soft         electrons   0.0000000000000000     
 augmentation electrons   864.17172981569820     
 soft         electrons   0.0000000000000000     
 augmentation electrons   864.17172981569820     
 soft         electrons   0.0000000000000000     
 augmentation electrons   864.17172981569820     
 soft         electrons   0.0000000000000000     
 augmentation electrons   864.17172981569820     
 soft         electrons   0.0000000000000000     
 augmentation electrons   864.17172981569820     
 soft         electrons   0.0000000000000000     
 augmentation electrons   864.17172981569820     
 soft         electrons   0.0000000000000000     
 augmentation electrons   864.17172981569820     
 soft         electrons   0.0000000000000000     
 augmentation electrons   864.17172981569820     
 soft         electrons   0.0000000000000000     
 augmentation electrons   864.17172981569820     
 soft         electrons   0.0000000000000000     
 augmentation electrons   864.17172981569820     
 soft         electrons   0.0000000000000000     
 augmentation electrons   864.17172981569820     
 soft         electrons   0.0000000000000000     
 augmentation electrons   864.17172981569820     
 soft         electrons   0.0000000000000000     
 augmentation electrons   864.17172981569820     
 soft         electrons   0.0000000000000000     
 augmentation electrons   864.17172981569820     
 soft         electrons   0.0000000000000000     
 augmentation electrons   864.17172981569820     
 soft         electrons   0.0000000000000000     
 augmentation electrons   864.17172981569820     
 soft         electrons   0.0000000000000000     
 augmentation electrons   864.17172981569820     
 soft         electrons   0.0000000000000000     
 augmentation electrons   864.17172981569820     
 soft         electrons   0.0000000000000000     
 augmentation electrons   864.17172981569820     
 soft         electrons   0.0000000000000000     
 augmentation electrons   864.17172981569820     
 soft         electrons   0.0000000000000000     
 augmentation electrons   864.17172981569820     
 soft         electrons   0.0000000000000000     
 augmentation electrons   864.17172981569820     
 soft         electrons   0.0000000000000000     
 augmentation electrons   864.17172981569820     
 soft         electrons   0.0000000000000000     
 augmentation electrons   864.17172981569820     
 soft         electrons   0.0000000000000000     
 augmentation electrons   864.17172981569820     
 soft         electrons   0.0000000000000000     
 augmentation electrons   864.17172981569820     
 soft         electrons   0.0000000000000000     
 augmentation electrons   864.17172981569820     
 soft         electrons   0.0000000000000000     
 augmentation electrons   864.17172981569820     
 soft         electrons   0.0000000000000000     
 augmentation electrons   864.17172981569820     
 soft         electrons   0.0000000000000000     
 augmentation electrons   864.17172981569820     
 soft         electrons   0.0000000000000000     
 augmentation electrons   864.17172981569820     
 soft         electrons   0.0000000000000000     
 augmentation electrons   864.17172981569820     
 soft         electrons   0.0000000000000000     
 augmentation electrons   864.17172981569820     
 soft         electrons   0.0000000000000000     
 augmentation electrons   864.17172981569820     
 soft         electrons   0.0000000000000000     
 augmentation electrons   864.17172981569820     
 soft         electrons   0.0000000000000000     
 augmentation electrons   864.17172981569820     
 soft         electrons   0.0000000000000000     
 augmentation electrons   864.17172981569820     
 soft         electrons   0.0000000000000000     
 augmentation electrons   864.17172981569820     
 soft         electrons   0.0000000000000000     
 augmentation electrons   864.17172981569820     
 soft         electrons   0.0000000000000000     
 augmentation electrons   864.17172981569820     
 soft         electrons   0.0000000000000000     
 augmentation electrons   864.17172981569820     
 soft         electrons   0.0000000000000000     
 augmentation electrons   864.17172981569820     
 soft         electrons   0.0000000000000000     
 augmentation electrons   864.17172981569820     
 soft         electrons   0.0000000000000000     
 augmentation electrons   864.17172981569820     
 soft         electrons   0.0000000000000000     
 augmentation electrons   864.17172981569820     
 soft         electrons   0.0000000000000000     
 augmentation electrons   864.17172981569820     
 soft         electrons   0.0000000000000000     
 augmentation electrons   864.17172981569820     
 soft         electrons   0.0000000000000000     
 augmentation electrons   864.17172981569820     
 soft         electrons   0.0000000000000000     
 augmentation electrons   864.17172981569820     
 soft         electrons   0.0000000000000000     
 augmentation electrons   864.17172981569820     
 soft         electrons   0.0000000000000000     
 augmentation electrons   864.17172981569820     
 soft         electrons   0.0000000000000000     
 augmentation electrons   864.17172981569820     
 soft         electrons   0.0000000000000000     
 augmentation electrons   864.17172981569820     
 soft         electrons   0.0000000000000000     
 augmentation electrons   864.17172981569820     
 soft         electrons   0.0000000000000000     
 augmentation electrons   864.17172981569820     
 soft         electrons   0.0000000000000000     
 augmentation electrons   864.17172981569820     
 soft         electrons   0.0000000000000000     
 augmentation electrons   864.17172981569820     
 soft         electrons   0.0000000000000000     
 augmentation electrons   864.17172981569820     
 soft         electrons   0.0000000000000000     
 augmentation electrons   864.17172981569820     
 soft         electrons   0.0000000000000000     
 augmentation electrons   864.17172981569820     
 soft         electrons   0.0000000000000000     
 augmentation electrons   864.17172981569820     
 soft         electrons   0.0000000000000000     
 augmentation electrons   864.17172981569820     
 soft         electrons   0.0000000000000000     
 augmentation electrons   864.17172981569820     
 soft         electrons   0.0000000000000000     
 augmentation electrons   864.17172981569820     
 soft         electrons   0.0000000000000000     
 augmentation electrons   864.17172981569820     
 soft         electrons   0.0000000000000000     
 augmentation electrons   864.17172981569820     
 soft         electrons   0.0000000000000000     
 augmentation electrons   864.17172981569820     
 soft         electrons   0.0000000000000000     
 total        electrons   864.17172981569820     
 total        electrons   864.17172981569820     
 total        electrons   864.17172981569820     
 total        electrons   864.17172981569820     
 total        electrons   864.17172981569820     
 total        electrons   864.17172981569820     
 total        electrons   864.17172981569820     
 total        electrons   864.17172981569820     
 total        electrons   864.17172981569820     
 total        electrons   864.17172981569820     
 total        electrons   864.17172981569820     
 total        electrons   864.17172981569820     
 total        electrons   864.17172981569820     
 total        electrons   864.17172981569820     
 total        electrons   864.17172981569820     
 total        electrons   864.17172981569820     
 total        electrons   864.17172981569820     
 total        electrons   864.17172981569820     
 total        electrons   864.17172981569820     
 total        electrons   864.17172981569820     
 total        electrons   864.17172981569820     
 total        electrons   864.17172981569820     
 total        electrons   864.17172981569820     
 total        electrons   864.17172981569820     
 total        electrons   864.17172981569820     
 total        electrons   864.17172981569820     
 total        electrons   864.17172981569820     
 total        electrons   864.17172981569820     
 total        electrons   864.17172981569820     
 total        electrons   864.17172981569820     
 total        electrons   864.17172981569820     
 total        electrons   864.17172981569820     
 total        electrons   864.17172981569820     
 total        electrons   864.17172981569820     
 total        electrons   864.17172981569820     
 total        electrons   864.17172981569820     
 total        electrons   864.17172981569820     
 total        electrons   864.17172981569820     
 total        electrons   864.17172981569820     
 total        electrons   864.17172981569820     
 total        electrons   864.17172981569820     
 total        electrons   864.17172981569820     
 total        electrons   864.17172981569820     
 total        electrons   864.17172981569820     
 total        electrons   864.17172981569820     
 total        electrons   864.17172981569820     
 total        electrons   864.17172981569820     
 total        electrons   864.17172981569820     
 total        electrons   864.17172981569820     
 total        electrons   864.17172981569820     
 total        electrons   864.17172981569820     
 total        electrons   864.17172981569820     
 total        electrons   864.17172981569820     
 total        electrons   864.17172981569820     
 total        electrons   864.17172981569820     
 total        electrons   864.17172981569820     
 total        electrons   864.17172981569820     
 total        electrons   864.17172981569820     
 total        electrons   864.17172981569820     
 total        electrons   864.17172981569820     
 total        electrons   864.17172981569820     
 total        electrons   864.17172981569820     
 total        electrons   864.17172981569820     
 total        electrons   864.17172981569820     
 total        electrons   864.17172981569820     
 total        electrons   864.17172981569820     
 total        electrons   864.17172981569820     
 total        electrons   864.17172981569820     
 total        electrons   864.17172981569820     
 total        electrons   864.17172981569820     
 total        electrons   864.17172981569820     
 total        electrons   864.17172981569820     
 entering main loop
       N       E                     dE             d eps       ncg     rms          rms(c)
DAV:   1     0.305775036605E+04    0.30578E+04   -0.95872E+04  8280   0.130E+03
DAV:   2     0.568652510416E+02   -0.30009E+04   -0.27808E+04  8892   0.338E+02
DAV:   3    -0.642851375503E+03   -0.69972E+03   -0.67583E+03 12024   0.196E+02
DAV:   4    -0.706999719429E+03   -0.64148E+02   -0.61655E+02 13572   0.661E+01
DAV:   5    -0.710527572898E+03   -0.35279E+01   -0.33615E+01 13812   0.157E+01    0.142E+02
RMM:   6    -0.650821638796E+03    0.59706E+02   -0.14575E+03  9768   0.115E+02    0.727E+01
RMM:   7    -0.685237435621E+03   -0.34416E+02   -0.79522E+02 10084   0.965E+01    0.541E+01
RMM:   8    -0.601978250547E+03    0.83259E+02   -0.94870E+01  8567   0.353E+01    0.270E+01
RMM:   9    -0.605635037492E+03   -0.36568E+01   -0.59970E+01  8618   0.257E+01    0.275E+01
RMM:  10    -0.588528244658E+03    0.17107E+02   -0.19523E+01 10459   0.113E+01    0.177E+01
RMM:  11    -0.588604795614E+03   -0.76551E-01   -0.51315E+00  9484   0.521E+00    0.160E+01
RMM:  12    -0.588560717343E+03    0.44078E-01   -0.13573E+00 10784   0.241E+00    0.146E+01
RMM:  13    -0.587415823346E+03    0.11449E+01   -0.26145E+00  9024   0.530E+00    0.991E+00
RMM:  14    -0.588062027055E+03   -0.64620E+00   -0.45999E+00  8831   0.654E+00    0.912E+00
RMM:  15    -0.587164299347E+03    0.89773E+00   -0.17876E+00  8543   0.481E+00    0.329E+00
RMM:  16    -0.587253631029E+03   -0.89332E-01   -0.14067E+00 10914   0.234E+00    0.349E+00
RMM:  17    -0.587127805148E+03    0.12583E+00   -0.27660E-01  8855   0.161E+00    0.182E+00
RMM:  18    -0.587114315157E+03    0.13490E-01   -0.21003E-01 10377   0.104E+00    0.164E+00
RMM:  19    -0.587093994951E+03    0.20320E-01   -0.88196E-02  9190   0.836E-01    0.120E+00
RMM:  20    -0.587087306753E+03    0.66882E-02   -0.10394E-01 10593   0.707E-01    0.975E-01
RMM:  21    -0.587083903481E+03    0.34033E-02   -0.45040E-02  8971   0.588E-01    0.759E-01
RMM:  22    -0.587082248638E+03    0.16548E-02   -0.21125E-02 10361   0.297E-01    0.595E-01
RMM:  23    -0.587080365108E+03    0.18835E-02   -0.14227E-02  9388   0.351E-01    0.292E-01
RMM:  24    -0.587081772089E+03   -0.14070E-02   -0.10617E-02 11162   0.198E-01    0.315E-01
RMM:  25    -0.587081355806E+03    0.41628E-03   -0.44965E-03  9031   0.209E-01    0.139E-01
RMM:  26    -0.587082457787E+03   -0.11020E-02   -0.31081E-03 11045   0.112E-01    0.159E-01
RMM:  27    -0.587082912256E+03   -0.45447E-03   -0.99859E-04  9480   0.822E-02    0.107E-01
RMM:  28    -0.587084086663E+03   -0.11744E-02   -0.18910E-03 10891   0.975E-02    0.951E-02
RMM:  29    -0.587084718462E+03   -0.63180E-03   -0.36429E-04  9466   0.467E-02    0.577E-02
RMM:  30    -0.587085047527E+03   -0.32907E-03   -0.21971E-04 10022   0.354E-02    0.491E-02
RMM:  31    -0.587085312096E+03   -0.26457E-03   -0.15133E-04 10716   0.283E-02    0.285E-02
RMM:  32    -0.587085519619E+03   -0.20752E-03   -0.11807E-04 10318   0.233E-02    0.211E-02
RMM:  33    -0.587085618281E+03   -0.98663E-04   -0.42805E-05  8879   0.162E-02    0.153E-02
RMM:  34    -0.587085735064E+03   -0.11678E-03   -0.25477E-05  7721   0.112E-02    0.181E-02
RMM:  35    -0.587085790931E+03   -0.55867E-04   -0.14900E-05  6960   0.107E-02    0.103E-02
RMM:  36    -0.587085939404E+03   -0.14847E-03   -0.12724E-05  6542   0.782E-03    0.749E-03
RMM:  37    -0.587086037705E+03   -0.98301E-04   -0.93611E-06  6528   0.590E-03    0.106E-02
RMM:  38    -0.587086080618E+03   -0.42913E-04   -0.26223E-06  5546   0.552E-03    0.844E-03
RMM:  39    -0.587086155548E+03   -0.74930E-04   -0.37685E-06  5831   0.384E-03    0.510E-03
RMM:  40    -0.587086220139E+03   -0.64591E-04   -0.52261E-06  6200   0.396E-03    0.302E-03
RMM:  41    -0.587086262294E+03   -0.42155E-04   -0.35039E-06  5751   0.320E-03    0.389E-03
RMM:  42    -0.587086276014E+03   -0.13720E-04   -0.97594E-07  5075   0.287E-03    0.223E-03
RMM:  43    -0.587086293754E+03   -0.17740E-04   -0.17008E-06  5340   0.270E-03    0.157E-03
RMM:  44    -0.587086303361E+03   -0.96073E-05   -0.10241E-06  5072   0.236E-03    0.976E-04
RMM:  45    -0.587086308033E+03   -0.46717E-05   -0.59154E-07  3844   0.143E-03    0.556E-04
RMM:  46    -0.587086309233E+03   -0.12004E-05   -0.26849E-07  3716   0.144E-03    0.724E-04
RMM:  47    -0.587086309982E+03   -0.74852E-06   -0.16864E-07  2870   0.785E-04
   1 F= -.58708631E+03 E0= -.58708676E+03  d E =-.587086E+03
 curvature:   0.00 expect dE= 0.000E+00 dE for cont linesearch  0.000E+00
 trial: gam= 0.00000 g(F)=  0.977E-04 g(S)=  0.000E+00 ort = 0.000E+00 (trialstep = 0.100E+01)
 search vector abs. value=  0.977E-04
 bond charge predicted
       N       E                     dE             d eps       ncg     rms          rms(c)
DAV:   1    -0.587086386665E+03   -0.77432E-04   -0.15431E-03  9096   0.786E-02    0.968E-03
RMM:   2    -0.587086389335E+03   -0.26699E-05   -0.32562E-05  8096   0.149E-02    0.836E-03
RMM:   3    -0.587086393161E+03   -0.38255E-05   -0.73663E-06  6736   0.926E-03    0.174E-02
RMM:   4    -0.587086390418E+03    0.27425E-05   -0.47746E-06  6238   0.835E-03    0.960E-03
RMM:   5    -0.587086389396E+03    0.10219E-05   -0.22387E-06  5479   0.676E-03    0.358E-03
RMM:   6    -0.587086389377E+03    0.18978E-07   -0.99216E-07  5009   0.392E-03
   2 F= -.58708639E+03 E0= -.58708684E+03  d E =-.793956E-04
 trial-energy change:   -0.000079  1 .order   -0.000078   -0.000098   -0.000059
 step:   2.5313(harm=  2.5313)  dis= 0.00369  next Energy=  -587.086434 (dE=-0.124E-03)
 bond charge predicted
       N       E                     dE             d eps       ncg     rms          rms(c)
DAV:   1    -0.587086429340E+03   -0.39944E-04   -0.36134E-03  8916   0.121E-01    0.150E-02
RMM:   2    -0.587086436387E+03   -0.70469E-05   -0.77471E-05  8467   0.246E-02    0.147E-02
RMM:   3    -0.587086442065E+03   -0.56777E-05   -0.20809E-05  8116   0.151E-02    0.234E-02
RMM:   4    -0.587086442316E+03   -0.25171E-06   -0.12191E-05  7402   0.109E-02    0.217E-02
RMM:   5    -0.587086436286E+03    0.60306E-05   -0.63275E-06  6222   0.101E-02    0.745E-03
RMM:   6    -0.587086436067E+03    0.21865E-06   -0.36738E-06  5927   0.621E-03
   3 F= -.58708644E+03 E0= -.58708689E+03  d E =-.126085E-03
 curvature:  -1.27 expect dE=-0.630E-04 dE for cont linesearch -0.452E-08
 trial: gam= 0.50386 g(F)=  0.498E-04 g(S)=  0.000E+00 ort = 0.591E-06 (trialstep = 0.131E+01)
 search vector abs. value=  0.752E-04
 bond charge predicted
       N       E                     dE             d eps       ncg     rms          rms(c)
DAV:   1    -0.587086494104E+03   -0.57819E-04   -0.19671E-03  9060   0.892E-02    0.941E-03
RMM:   2    -0.587086498225E+03   -0.41202E-05   -0.33526E-05  8487   0.185E-02    0.111E-02
RMM:   3    -0.587086498253E+03   -0.28936E-07   -0.94172E-06  7035   0.106E-02    0.101E-02
RMM:   4    -0.587086498907E+03   -0.65335E-06   -0.46207E-06  5986   0.777E-03    0.105E-02
RMM:   5    -0.587086498644E+03    0.26263E-06   -0.21687E-06  5424   0.653E-03
   4 F= -.58708650E+03 E0= -.58708695E+03  d E =-.625772E-04
 ZBRENT: can't locate minimum, use default step
 trial-energy change:   -0.000063  1 .order   -0.000061   -0.000065   -0.000057
 step:   5.2250(harm= 10.6487)  dis= 0.00443  next Energy=  -587.086703 (dE=-0.267E-03)
 bond charge predicted
       N       E                     dE             d eps       ncg     rms          rms(c)
DAV:   1    -0.587086608440E+03   -0.10953E-03   -0.17729E-02  8796   0.265E-01    0.275E-02
RMM:   2    -0.587086640033E+03   -0.31593E-04   -0.24162E-04  9431   0.476E-02    0.315E-02
RMM:   3    -0.587086650855E+03   -0.10822E-04   -0.70182E-05  9635   0.258E-02    0.372E-02
RMM:   4    -0.587086658547E+03   -0.76916E-05   -0.49327E-05  8820   0.193E-02    0.426E-02
RMM:   5    -0.587086638845E+03    0.19702E-04   -0.22784E-05  7528   0.175E-02    0.138E-02
RMM:   6    -0.587086638004E+03    0.84112E-06   -0.12282E-05  6883   0.117E-02    0.102E-02
RMM:   7    -0.587086637249E+03    0.75421E-06   -0.38392E-06  5930   0.719E-03
   5 F= -.58708664E+03 E0= -.58708710E+03  d E =-.201182E-03
 curvature:  -5.30 expect dE=-0.715E-04 dE for cont linesearch -0.486E-04
 trial: gam=-0.24791 g(F)=  0.135E-04 g(S)=  0.000E+00 ort = 0.263E-04 (trialstep = 0.209E+01)
 search vector abs. value=  0.509E-05
 reached required accuracy - stopping structural energy minimisation
 augmentation electrons   35.670139104931096     
 soft         electrons   243.42517578870476     
 augmentation electrons   35.670139104931096     
 soft         electrons   243.42517578870476     
 augmentation electrons   35.670139104931096     
 soft         electrons   243.42517578870476     
 augmentation electrons   35.670139104931096     
 soft         electrons   243.42517578870476     
 augmentation electrons   35.670139104931096     
 soft         electrons   243.42517578870476     
 augmentation electrons   35.670139104931096     
 soft         electrons   243.42517578870476     
 augmentation electrons   35.670139104931096     
 soft         electrons   243.42517578870476     
 augmentation electrons   35.670139104931096     
 soft         electrons   243.42517578870476     
 augmentation electrons   35.670139104931096     
 soft         electrons   243.42517578870476     
 augmentation electrons   35.670139104931096     
 soft         electrons   243.42517578870476     
 augmentation electrons   35.670139104931096     
 soft         electrons   243.42517578870476     
 augmentation electrons   35.670139104931096     
 soft         electrons   243.42517578870476     
 augmentation electrons   35.670139104931096     
 soft         electrons   243.42517578870476     
 augmentation electrons   35.670139104931096     
 soft         electrons   243.42517578870476     
 augmentation electrons   35.670139104931096     
 soft         electrons   243.42517578870476     
 augmentation electrons   35.670139104931096     
 soft         electrons   243.42517578870476     
 augmentation electrons   35.670139104931096     
 soft         electrons   243.42517578870476     
 augmentation electrons   35.670139104931096     
 soft         electrons   243.42517578870476     
 augmentation electrons   35.670139104931096     
 soft         electrons   243.42517578870476     
 augmentation electrons   35.670139104931096     
 soft         electrons   243.42517578870476     
 augmentation electrons   35.670139104931096     
 soft         electrons   243.42517578870476     
 augmentation electrons   35.670139104931096     
 soft         electrons   243.42517578870476     
 augmentation electrons   35.670139104931096     
 soft         electrons   243.42517578870476     
 augmentation electrons   35.670139104931096     
 soft         electrons   243.42517578870476     
 augmentation electrons   35.670139104931096     
 soft         electrons   243.42517578870476     
 augmentation electrons   35.670139104931096     
 soft         electrons   243.42517578870476     
 augmentation electrons   35.670139104931096     
 soft         electrons   243.42517578870476     
 augmentation electrons   35.670139104931096     
 soft         electrons   243.42517578870476     
 augmentation electrons   35.670139104931096     
 soft         electrons   243.42517578870476     
 augmentation electrons   35.670139104931096     
 soft         electrons   243.42517578870476     
 augmentation electrons   35.670139104931096     
 soft         electrons   243.42517578870476     
 augmentation electrons   35.670139104931096     
 soft         electrons   243.42517578870476     
 augmentation electrons   35.670139104931096     
 soft         electrons   243.42517578870476     
 augmentation electrons   35.670139104931096     
 soft         electrons   243.42517578870476     
 augmentation electrons   35.670139104931096     
 soft         electrons   243.42517578870476     
 augmentation electrons   35.670139104931096     
 soft         electrons   243.42517578870476     
 augmentation electrons   35.670139104931096     
 soft         electrons   243.42517578870476     
 augmentation electrons   35.670139104931096     
 soft         electrons   243.42517578870476     
 augmentation electrons   35.670139104931096     
 soft         electrons   243.42517578870476     
 augmentation electrons   35.670139104931096     
 soft         electrons   243.42517578870476     
 augmentation electrons   35.670139104931096     
 soft         electrons   243.42517578870476     
 augmentation electrons   35.670139104931096     
 soft         electrons   243.42517578870476     
 augmentation electrons   35.670139104931096     
 soft         electrons   243.42517578870476     
 augmentation electrons   35.670139104931096     
 soft         electrons   243.42517578870476     
 augmentation electrons   35.670139104931096     
 soft         electrons   243.42517578870476     
 augmentation electrons   35.670139104931096     
 soft         electrons   243.42517578870476     
 augmentation electrons   35.670139104931096     
 soft         electrons   243.42517578870476     
 augmentation electrons   35.670139104931096     
 soft         electrons   243.42517578870476     
 augmentation electrons   35.670139104931096     
 soft         electrons   243.42517578870476     
 augmentation electrons   35.670139104931096     
 soft         electrons   243.42517578870476     
 augmentation electrons   35.670139104931096     
 soft         electrons   243.42517578870476     
 augmentation electrons   35.670139104931096     
 soft         electrons   243.42517578870476     
 augmentation electrons   35.670139104931096     
 soft         electrons   243.42517578870476     
 augmentation electrons   35.670139104931096     
 augmentation electrons   35.670139104931096     
 soft         electrons   243.42517578870476     
 augmentation electrons   35.670139104931096     
 soft         electrons   243.42517578870476     
 augmentation electrons   35.670139104931096     
 soft         electrons   243.42517578870476     
 augmentation electrons   35.670139104931096     
 soft         electrons   243.42517578870476     
 augmentation electrons   35.670139104931096     
 soft         electrons   243.42517578870476     
 augmentation electrons   35.670139104931096     
 soft         electrons   243.42517578870476     
 augmentation electrons   35.670139104931096     
 soft         electrons   243.42517578870476     
 augmentation electrons   35.670139104931096     
 soft         electrons   243.42517578870476     
 augmentation electrons   35.670139104931096     
 soft         electrons   243.42517578870476     
 augmentation electrons   35.670139104931096     
 soft         electrons   243.42517578870476     
 augmentation electrons   35.670139104931096     
 soft         electrons   243.42517578870476     
 augmentation electrons   35.670139104931096     
 soft         electrons   243.42517578870476     
 augmentation electrons   35.670139104931096     
 soft         electrons   243.42517578870476     
 augmentation electrons   35.670139104931096     
 soft         electrons   243.42517578870476     
 augmentation electrons   35.670139104931096     
 soft         electrons   243.42517578870476     
 augmentation electrons   35.670139104931096     
 soft         electrons   243.42517578870476     
 augmentation electrons   35.670139104931096     
 soft         electrons   243.42517578870476     
 augmentation electrons   35.670139104931096     
 soft         electrons   243.42517578870476     
 soft         electrons   243.42517578870476     
 total        electrons   279.09531489363587     
 total        electrons   279.09531489363587     
 total        electrons   279.09531489363587     
 total        electrons   279.09531489363587     
 total        electrons   279.09531489363587     
 total        electrons   279.09531489363587     
 total        electrons   279.09531489363587     
 total        electrons   279.09531489363587     
 total        electrons   279.09531489363587     
 total        electrons   279.09531489363587     
 total        electrons   279.09531489363587     
 total        electrons   279.09531489363587     
 total        electrons   279.09531489363587     
 total        electrons   279.09531489363587     
 total        electrons   279.09531489363587     
 total        electrons   279.09531489363587     
 total        electrons   279.09531489363587     
 total        electrons   279.09531489363587     
 total        electrons   279.09531489363587     
 total        electrons   279.09531489363587     
 total        electrons   279.09531489363587     
 total        electrons   279.09531489363587     
 total        electrons   279.09531489363587     
 total        electrons   279.09531489363587     
 total        electrons   279.09531489363587     
 total        electrons   279.09531489363587     
 total        electrons   279.09531489363587     
 total        electrons   279.09531489363587     
 total        electrons   279.09531489363587     
 total        electrons   279.09531489363587     
 total        electrons   279.09531489363587     
 total        electrons   279.09531489363587     
 total        electrons   279.09531489363587     
 total        electrons   279.09531489363587     
 total        electrons   279.09531489363587     
 total        electrons   279.09531489363587     
 total        electrons   279.09531489363587     
 total        electrons   279.09531489363587     
 total        electrons   279.09531489363587     
 total        electrons   279.09531489363587     
 total        electrons   279.09531489363587     
 total        electrons   279.09531489363587     
 total        electrons   279.09531489363587     
 total        electrons   279.09531489363587     
 total        electrons   279.09531489363587     
 total        electrons   279.09531489363587     
 total        electrons   279.09531489363587     
 total        electrons   279.09531489363587     
 total        electrons   279.09531489363587     
 total        electrons   279.09531489363587     
 total        electrons   279.09531489363587     
 total        electrons   279.09531489363587     
 total        electrons   279.09531489363587     
 total        electrons   279.09531489363587     
 total        electrons   279.09531489363587     
 total        electrons   279.09531489363587     
 total        electrons   279.09531489363587     
 total        electrons   279.09531489363587     
 total        electrons   279.09531489363587     
 total        electrons   279.09531489363587     
 total        electrons   279.09531489363587     
 total        electrons   279.09531489363587     
 total        electrons   279.09531489363587     
 total        electrons   279.09531489363587     
 total        electrons   279.09531489363587     
 total        electrons   279.09531489363587     
 total        electrons   279.09531489363587     
 total        electrons   279.09531489363587     
 total        electrons   279.09531489363587     
 total        electrons   279.09531489363587     
 total        electrons   279.09531489363587     
 total        electrons   279.09531489363587     
Note: The following floating-point exceptions are signalling: IEEE_OVERFLOW_FLAG
Note: The following floating-point exceptions are signalling: IEEE_INVALID_FLAG IEEE_OVERFLOW_FLAG
Note: The following floating-point exceptions are signalling: IEEE_OVERFLOW_FLAG
Note: The following floating-point exceptions are signalling: IEEE_OVERFLOW_FLAG
Note: The following floating-point exceptions are signalling: IEEE_OVERFLOW_FLAG
Note: The following floating-point exceptions are signalling: IEEE_OVERFLOW_FLAG
Note: The following floating-point exceptions are signalling: IEEE_OVERFLOW_FLAG
Note: The following floating-point exceptions are signalling: IEEE_OVERFLOW_FLAG
Note: The following floating-point exceptions are signalling: IEEE_OVERFLOW_FLAG
Note: The following floating-point exceptions are signalling: IEEE_OVERFLOW_FLAG
Note: The following floating-point exceptions are signalling: IEEE_OVERFLOW_FLAG
Note: The following floating-point exceptions are signalling: IEEE_OVERFLOW_FLAG
Note: The following floating-point exceptions are signalling: IEEE_OVERFLOW_FLAG
Note: The following floating-point exceptions are signalling: IEEE_OVERFLOW_FLAG
Note: The following floating-point exceptions are signalling: IEEE_OVERFLOW_FLAG
Note: The following floating-point exceptions are signalling: IEEE_OVERFLOW_FLAG
Note: The following floating-point exceptions are signalling: IEEE_OVERFLOW_FLAG
Note: The following floating-point exceptions are signalling: IEEE_OVERFLOW_FLAG
Note: The following floating-point exceptions are signalling: IEEE_OVERFLOW_FLAG
Note: The following floating-point exceptions are signalling: IEEE_OVERFLOW_FLAG
Note: The following floating-point exceptions are signalling: IEEE_OVERFLOW_FLAG
Note: The following floating-point exceptions are signalling: IEEE_OVERFLOW_FLAG
Note: The following floating-point exceptions are signalling: IEEE_OVERFLOW_FLAG
Note: The following floating-point exceptions are signalling: IEEE_OVERFLOW_FLAG
Note: The following floating-point exceptions are signalling: IEEE_OVERFLOW_FLAG
Note: The following floating-point exceptions are signalling: IEEE_OVERFLOW_FLAG
Note: The following floating-point exceptions are signalling: IEEE_OVERFLOW_FLAG
Note: The following floating-point exceptions are signalling: IEEE_OVERFLOW_FLAG
Note: The following floating-point exceptions are signalling: IEEE_OVERFLOW_FLAG
Note: The following floating-point exceptions are signalling: IEEE_OVERFLOW_FLAG
Note: The following floating-point exceptions are signalling: IEEE_OVERFLOW_FLAG
Note: The following floating-point exceptions are signalling: IEEE_OVERFLOW_FLAG
Note: The following floating-point exceptions are signalling: IEEE_OVERFLOW_FLAG
Note: The following floating-point exceptions are signalling: IEEE_OVERFLOW_FLAG
Note: The following floating-point exceptions are signalling: IEEE_OVERFLOW_FLAG
Note: The following floating-point exceptions are signalling: IEEE_OVERFLOW_FLAG
Note: The following floating-point exceptions are signalling: IEEE_OVERFLOW_FLAG
Note: The following floating-point exceptions are signalling: IEEE_OVERFLOW_FLAG
Note: The following floating-point exceptions are signalling: IEEE_OVERFLOW_FLAG
Note: The following floating-point exceptions are signalling: IEEE_OVERFLOW_FLAG
Note: The following floating-point exceptions are signalling: IEEE_OVERFLOW_FLAG
Note: The following floating-point exceptions are signalling: IEEE_OVERFLOW_FLAG
Note: The following floating-point exceptions are signalling: IEEE_OVERFLOW_FLAG
Note: The following floating-point exceptions are signalling: IEEE_OVERFLOW_FLAG
Note: The following floating-point exceptions are signalling: IEEE_OVERFLOW_FLAG
Note: The following floating-point exceptions are signalling: IEEE_OVERFLOW_FLAG
Note: The following floating-point exceptions are signalling: IEEE_OVERFLOW_FLAG
Note: The following floating-point exceptions are signalling: IEEE_OVERFLOW_FLAG
Note: The following floating-point exceptions are signalling: IEEE_OVERFLOW_FLAG
Note: The following floating-point exceptions are signalling: IEEE_OVERFLOW_FLAG
Note: The following floating-point exceptions are signalling: IEEE_INVALID_FLAG IEEE_OVERFLOW_FLAG
Note: The following floating-point exceptions are signalling: IEEE_OVERFLOW_FLAG
Note: The following floating-point exceptions are signalling: IEEE_OVERFLOW_FLAG
Note: The following floating-point exceptions are signalling: IEEE_OVERFLOW_FLAG
Note: The following floating-point exceptions are signalling: IEEE_OVERFLOW_FLAG
Note: The following floating-point exceptions are signalling: IEEE_OVERFLOW_FLAG
Note: The following floating-point exceptions are signalling: IEEE_OVERFLOW_FLAG
Note: The following floating-point exceptions are signalling: IEEE_OVERFLOW_FLAG
Note: The following floating-point exceptions are signalling: IEEE_OVERFLOW_FLAG
Note: The following floating-point exceptions are signalling: IEEE_OVERFLOW_FLAG
Note: The following floating-point exceptions are signalling: IEEE_OVERFLOW_FLAG
Note: The following floating-point exceptions are signalling: IEEE_OVERFLOW_FLAG
Note: The following floating-point exceptions are signalling: IEEE_OVERFLOW_FLAG
Note: The following floating-point exceptions are signalling: IEEE_OVERFLOW_FLAG
Note: The following floating-point exceptions are signalling: IEEE_OVERFLOW_FLAG
Note: The following floating-point exceptions are signalling: IEEE_OVERFLOW_FLAG
Note: The following floating-point exceptions are signalling: IEEE_OVERFLOW_FLAG
Note: The following floating-point exceptions are signalling: IEEE_OVERFLOW_FLAG
Note: The following floating-point exceptions are signalling: IEEE_OVERFLOW_FLAG
Note: The following floating-point exceptions are signalling: IEEE_OVERFLOW_FLAG
Note: The following floating-point exceptions are signalling: IEEE_OVERFLOW_FLAG
Note: The following floating-point exceptions are signalling: IEEE_OVERFLOW_FLAG
