   58   58   85    1
  0.1276512E+02  0.6042588E-09  0.6042559E-09  0.2341357E-08  0.5000000E-15
   1.0000000000000000E-004
  CAR 
 Name                                    
    200     41    132

  0.3742002E-15  0.3742002E-15  0.1262379E-14  0.1234568E-01
    1      -11.491845   1.000000
    2      -10.914746   1.000000
    3      -10.202190   1.000000
    4       -9.532840   1.000000
    5       -8.700366   1.000000
    6       -8.208265   1.000000
    7       -8.027754   1.000000
    8       -7.898790   1.000000
    9       -7.742995   1.000000
   10       -7.659519   1.000000
   11       -7.646017   1.000000
   12       -7.569374   1.000000
   13       -7.564263   1.000000
   14       -7.498474   1.000000
   15       -7.291101   1.000000
   16       -7.277277   1.000000
   17       -7.228194   1.000000
   18       -7.181716   1.000000
   19       -7.063968   1.000000
   20       -7.027862   1.000000
   21       -7.012752   1.000000
   22       -6.668213   1.000000
   23       -6.609698   1.000000
   24       -6.220819   1.000000
   25       -5.874895   1.000000
   26       -5.860116   1.000000
   27       -5.816691   1.000000
   28       -5.751166   1.000000
   29       -5.738801   1.000000
   30       -5.449254   1.000000
   31       -5.381638   1.000000
   32       -4.696876   1.000000
   33       -4.564005   1.000000
   34       -4.469144   1.000000
   35       -4.438347   1.000000
   36       -4.347881   1.000000
   37       -4.046671   1.000000
   38       -3.195541   1.000000
   39       -3.172744   1.000000
   40       -3.136981   1.000000
   41       -2.813488   1.000000
   42       -2.725079   1.000000
   43       -2.691003   1.000000
   44       -2.477884   1.000000
   45       -2.340754   1.000000
   46       -2.338892   1.000000
   47       -1.998339   1.000000
   48       -1.991658   1.000000
   49       -1.921755   1.000000
   50       -1.921324   1.000000
   51       -1.898169   1.000000
   52       -1.756745   1.000000
   53       -1.658172   1.000000
   54       -1.618961   1.000000
   55       -1.570937   1.000000
   56       -1.410275   1.000000
   57       -1.401476   1.000000
   58       -1.395951   1.000000
   59       -1.356033   1.000000
   60       -1.315804   1.000000
   61       -1.230765   1.000000
   62       -1.186950   1.000000
   63       -1.144734   1.000000
   64       -1.136840   1.000000
   65       -0.967327   1.000000
   66       -0.824201   1.000000
   67       -0.790329   1.000000
   68       -0.771396   1.000000
   69       -0.662807   1.000000
   70       -0.612801   1.000000
   71       -0.599255   1.000000
   72       -0.508944   1.000000
   73       -0.455783   1.000000
   74       -0.347730   1.000000
   75       -0.190963   1.000000
   76       -0.152728   1.000000
   77       -0.143865   1.000000
   78       -0.028809   1.000000
   79       -0.012475   1.000000
   80        0.151841   1.000000
   81        0.378599   1.000000
   82        0.441516   1.000000
   83        0.569221   1.000000
   84        0.826259   1.000000
   85        0.959814   1.000000
   86        1.309588   1.000000
   87        1.329292   1.000000
   88        1.408831   1.000000
   89        1.457469   1.000000
   90        1.526443   1.000000
   91        1.592639   1.000000
   92        1.635821   1.000000
   93        1.684166   1.000000
   94        1.688880   1.000000
   95        1.734756   1.000000
   96        1.815128   1.000002
   97        1.825744   1.000003
   98        2.104233   1.004921
   99        2.435120   0.863175
  100        2.789058  -0.034989
  101        2.842961  -0.025301
  102        2.899566  -0.013134
  103        3.006584  -0.002031
  104        3.053521  -0.000717
  105        3.112826  -0.000161
  106        3.261618  -0.000002
  107        3.334702  -0.000000
  108        3.413126  -0.000000
  109        3.539906  -0.000000
  110        3.573165  -0.000000
  111        3.662111  -0.000000
  112        3.684098  -0.000000
  113        3.752240  -0.000000
  114        3.782487  -0.000000
  115        3.790811  -0.000000
  116        3.834797  -0.000000
  117        3.847402  -0.000000
  118        3.893335  -0.000000
  119        3.958983  -0.000000
  120        3.968394  -0.000000
  121        4.054041  -0.000000
  122        4.058521  -0.000000
  123        4.159830  -0.000000
  124        4.182094  -0.000000
  125        4.193685  -0.000000
  126        4.199566  -0.000000
  127        4.360235  -0.000000
  128        4.376108  -0.000000
  129        4.690490  -0.000000
  130        4.748078  -0.000000
  131        4.837211  -0.000000
  132        5.006395  -0.000000

  0.1111111E+00  0.3867788E-15  0.1262378E-14  0.2469136E-01
    1      -11.434751   1.000000
    2      -10.861722   1.000000
    3      -10.157347   1.000000
    4       -9.495539   1.000000
    5       -8.664276   1.000000
    6       -8.275498   1.000000
    7       -8.243436   1.000000
    8       -8.104233   1.000000
    9       -8.050340   1.000000
   10       -7.867722   1.000000
   11       -7.842608   1.000000
   12       -7.711890   1.000000
   13       -7.684130   1.000000
   14       -7.572095   1.000000
   15       -7.446449   1.000000
   16       -7.172903   1.000000
   17       -7.084973   1.000000
   18       -7.003889   1.000000
   19       -6.974249   1.000000
   20       -6.741833   1.000000
   21       -6.697974   1.000000
   22       -6.605638   1.000000
   23       -6.404500   1.000000
   24       -6.091026   1.000000
   25       -5.932342   1.000000
   26       -5.884159   1.000000
   27       -5.796609   1.000000
   28       -5.742756   1.000000
   29       -5.519542   1.000000
   30       -5.339669   1.000000
   31       -5.311611   1.000000
   32       -4.510376   1.000000
   33       -4.497487   1.000000
   34       -4.365706   1.000000
   35       -4.290119   1.000000
   36       -4.263682   1.000000
   37       -3.936288   1.000000
   38       -3.189682   1.000000
   39       -3.182002   1.000000
   40       -3.091657   1.000000
   41       -2.829920   1.000000
   42       -2.793110   1.000000
   43       -2.743619   1.000000
   44       -2.544180   1.000000
   45       -2.393468   1.000000
   46       -2.371129   1.000000
   47       -2.246992   1.000000
   48       -2.111008   1.000000
   49       -1.952857   1.000000
   50       -1.930246   1.000000
   51       -1.870245   1.000000
   52       -1.790290   1.000000
   53       -1.720078   1.000000
   54       -1.634700   1.000000
   55       -1.589631   1.000000
   56       -1.551222   1.000000
   57       -1.460130   1.000000
   58       -1.395833   1.000000
   59       -1.349452   1.000000
   60       -1.311707   1.000000
   61       -1.272330   1.000000
   62       -1.219726   1.000000
   63       -1.141545   1.000000
   64       -1.082129   1.000000
   65       -1.030767   1.000000
   66       -0.968508   1.000000
   67       -0.832223   1.000000
   68       -0.815096   1.000000
   69       -0.700009   1.000000
   70       -0.626510   1.000000
   71       -0.558397   1.000000
   72       -0.546798   1.000000
   73       -0.442513   1.000000
   74       -0.329453   1.000000
   75       -0.229204   1.000000
   76       -0.169047   1.000000
   77       -0.065805   1.000000
   78       -0.034414   1.000000
   79        0.064030   1.000000
   80        0.127810   1.000000
   81        0.237388   1.000000
   82        0.318174   1.000000
   83        0.580132   1.000000
   84        0.711722   1.000000
   85        0.719659   1.000000
   86        1.118587   1.000000
   87        1.167018   1.000000
   88        1.357664   1.000000
   89        1.436281   1.000000
   90        1.517877   1.000000
   91        1.536745   1.000000
   92        1.569290   1.000000
   93        1.585435   1.000000
   94        1.692413   1.000000
   95        1.838704   1.000005
   96        1.911249   1.000051
   97        1.987773   1.000401
   98        2.266656   1.033988
   99        2.599867   0.232526
  100        2.741180  -0.029015
  101        2.817017  -0.030942
  102        2.875251  -0.017979
  103        2.930315  -0.008297
  104        2.980588  -0.003418
  105        3.096669  -0.000246
  106        3.353546  -0.000000
  107        3.402488  -0.000000
  108        3.526594  -0.000000
  109        3.557317  -0.000000
  110        3.572979  -0.000000
  111        3.645909  -0.000000
  112        3.703412  -0.000000
  113        3.728690  -0.000000
  114        3.751867  -0.000000
  115        3.770865  -0.000000
  116        3.806633  -0.000000
  117        3.850789  -0.000000
  118        3.859434  -0.000000
  119        3.900089  -0.000000
  120        3.964828  -0.000000
  121        4.021669  -0.000000
  122        4.039766  -0.000000
  123        4.136571  -0.000000
  124        4.146710  -0.000000
  125        4.181961  -0.000000
  126        4.238375  -0.000000
  127        4.287183  -0.000000
  128        4.376247  -0.000000
  129        4.644883  -0.000000
  130        4.723389  -0.000000
  131        4.834028  -0.000000
  132        4.852794  -0.000000

  0.2222222E+00  0.3825705E-15  0.1262378E-14  0.2469136E-01
    1      -11.265489   1.000000
    2      -10.704731   1.000000
    3      -10.025394   1.000000
    4       -9.386085   1.000000
    5       -8.915327   1.000000
    6       -8.620058   1.000000
    7       -8.558433   1.000000
    8       -8.458960   1.000000
    9       -8.143532   1.000000
   10       -8.107766   1.000000
   11       -7.986582   1.000000
   12       -7.964162   1.000000
   13       -7.847970   1.000000
   14       -7.802635   1.000000
   15       -7.678837   1.000000
   16       -7.232554   1.000000
   17       -7.049077   1.000000
   18       -6.934197   1.000000
   19       -6.623737   1.000000
   20       -6.601398   1.000000
   21       -6.379361   1.000000
   22       -6.365946   1.000000
   23       -5.937351   1.000000
   24       -5.899087   1.000000
   25       -5.738146   1.000000
   26       -5.685616   1.000000
   27       -5.613539   1.000000
   28       -5.456273   1.000000
   29       -5.111439   1.000000
   30       -5.089187   1.000000
   31       -5.040953   1.000000
   32       -4.317284   1.000000
   33       -4.276412   1.000000
   34       -4.204952   1.000000
   35       -4.081510   1.000000
   36       -3.787469   1.000000
   37       -3.591863   1.000000
   38       -3.230489   1.000000
   39       -3.212253   1.000000
   40       -3.078662   1.000000
   41       -3.015152   1.000000
   42       -2.935478   1.000000
   43       -2.923974   1.000000
   44       -2.745881   1.000000
   45       -2.724827   1.000000
   46       -2.513505   1.000000
   47       -2.370638   1.000000
   48       -2.246125   1.000000
   49       -2.055431   1.000000
   50       -2.000258   1.000000
   51       -1.973830   1.000000
   52       -1.886916   1.000000
   53       -1.819018   1.000000
   54       -1.705144   1.000000
   55       -1.654437   1.000000
   56       -1.602187   1.000000
   57       -1.553475   1.000000
   58       -1.508733   1.000000
   59       -1.454396   1.000000
   60       -1.424674   1.000000
   61       -1.342538   1.000000
   62       -1.299102   1.000000
   63       -1.257645   1.000000
   64       -1.195660   1.000000
   65       -1.059064   1.000000
   66       -1.046985   1.000000
   67       -0.986420   1.000000
   68       -0.882145   1.000000
   69       -0.863287   1.000000
   70       -0.785656   1.000000
   71       -0.651342   1.000000
   72       -0.570331   1.000000
   73       -0.464711   1.000000
   74       -0.348536   1.000000
   75       -0.301121   1.000000
   76       -0.153664   1.000000
   77       -0.107843   1.000000
   78       -0.050437   1.000000
   79       -0.004247   1.000000
   80        0.067918   1.000000
   81        0.167182   1.000000
   82        0.349970   1.000000
   83        0.466704   1.000000
   84        0.552405   1.000000
   85        0.698107   1.000000
   86        0.793975   1.000000
   87        0.915307   1.000000
   88        1.296471   1.000000
   89        1.335652   1.000000
   90        1.381010   1.000000
   91        1.480981   1.000000
   92        1.512280   1.000000
   93        1.539379   1.000000
   94        1.614556   1.000000
   95        1.933245   1.000095
   96        2.028701   1.001060
   97        2.061444   1.002151
   98        2.196244   1.019342
   99        2.444667   0.835266
  100        2.597883   0.239497
  101        2.769482  -0.035191
  102        2.932449  -0.008018
  103        3.131528  -0.000096
  104        3.183269  -0.000021
  105        3.258875  -0.000002
  106        3.363367  -0.000000
  107        3.397936  -0.000000
  108        3.429200  -0.000000
  109        3.449261  -0.000000
  110        3.487725  -0.000000
  111        3.548867  -0.000000
  112        3.637470  -0.000000
  113        3.702938  -0.000000
  114        3.706894  -0.000000
  115        3.740323  -0.000000
  116        3.758301  -0.000000
  117        3.784945  -0.000000
  118        3.836463  -0.000000
  119        3.942651  -0.000000
  120        3.981156  -0.000000
  121        4.015679  -0.000000
  122        4.059811  -0.000000
  123        4.099182  -0.000000
  124        4.150237  -0.000000
  125        4.164571  -0.000000
  126        4.244284  -0.000000
  127        4.286537  -0.000000
  128        4.393335  -0.000000
  129        4.465085  -0.000000
  130        4.567644  -0.000000
  131        4.700697  -0.000000
  132        4.772287  -0.000000

  0.3333333E+00  0.3885513E-15  0.1262378E-14  0.2469136E-01
    1      -10.991168   1.000000
    2      -10.450471   1.000000
    3       -9.815499   1.000000
    4       -9.539809   1.000000
    5       -9.208119   1.000000
    6       -9.137233   1.000000
    7       -8.811432   1.000000
    8       -8.377767   1.000000
    9       -8.281821   1.000000
   10       -8.226183   1.000000
   11       -8.207401   1.000000
   12       -8.123897   1.000000
   13       -8.064149   1.000000
   14       -7.964959   1.000000
   15       -7.718901   1.000000
   16       -7.340557   1.000000
   17       -7.262121   1.000000
   18       -7.132848   1.000000
   19       -6.426812   1.000000
   20       -6.418110   1.000000
   21       -5.953828   1.000000
   22       -5.940757   1.000000
   23       -5.735951   1.000000
   24       -5.695870   1.000000
   25       -5.685768   1.000000
   26       -5.367215   1.000000
   27       -4.940876   1.000000
   28       -4.813244   1.000000
   29       -4.769791   1.000000
   30       -4.701983   1.000000
   31       -4.453831   1.000000
   32       -4.099189   1.000000
   33       -4.004142   1.000000
   34       -3.993696   1.000000
   35       -3.833048   1.000000
   36       -3.646821   1.000000
   37       -3.511499   1.000000
   38       -3.434467   1.000000
   39       -3.396751   1.000000
   40       -3.340654   1.000000
   41       -3.308707   1.000000
   42       -3.265542   1.000000
   43       -3.010959   1.000000
   44       -2.784823   1.000000
   45       -2.602122   1.000000
   46       -2.549740   1.000000
   47       -2.488741   1.000000
   48       -2.287752   1.000000
   49       -2.217658   1.000000
   50       -2.193748   1.000000
   51       -2.139953   1.000000
   52       -2.025370   1.000000
   53       -1.931899   1.000000
   54       -1.865754   1.000000
   55       -1.850420   1.000000
   56       -1.775498   1.000000
   57       -1.693006   1.000000
   58       -1.661187   1.000000
   59       -1.552028   1.000000
   60       -1.530412   1.000000
   61       -1.504042   1.000000
   62       -1.399167   1.000000
   63       -1.390608   1.000000
   64       -1.364480   1.000000
   65       -1.267016   1.000000
   66       -1.247329   1.000000
   67       -0.999957   1.000000
   68       -0.953165   1.000000
   69       -0.930808   1.000000
   70       -0.795101   1.000000
   71       -0.732305   1.000000
   72       -0.639700   1.000000
   73       -0.546134   1.000000
   74       -0.447888   1.000000
   75       -0.332897   1.000000
   76       -0.212593   1.000000
   77       -0.182375   1.000000
   78       -0.108829   1.000000
   79       -0.049641   1.000000
   80        0.027530   1.000000
   81        0.139905   1.000000
   82        0.263542   1.000000
   83        0.408856   1.000000
   84        0.528083   1.000000
   85        0.669580   1.000000
   86        0.821103   1.000000
   87        0.951559   1.000000
   88        1.142224   1.000000
   89        1.219701   1.000000
   90        1.299588   1.000000
   91        1.420482   1.000000
   92        1.444623   1.000000
   93        1.522743   1.000000
   94        1.601575   1.000000
   95        1.788223   1.000001
   96        1.994880   1.000478
   97        2.039651   1.001353
   98        2.223494   1.025578
   99        2.310588   1.033107
  100        2.447452   0.826713
  101        2.719014  -0.016546
  102        2.896130  -0.013767
  103        2.938031  -0.007319
  104        3.029675  -0.001237
  105        3.147133  -0.000062
  106        3.216157  -0.000007
  107        3.272182  -0.000001
  108        3.365024  -0.000000
  109        3.406789  -0.000000
  110        3.443500  -0.000000
  111        3.545632  -0.000000
  112        3.563258  -0.000000
  113        3.603699  -0.000000
  114        3.645290  -0.000000
  115        3.698989  -0.000000
  116        3.777887  -0.000000
  117        3.831473  -0.000000
  118        3.858423  -0.000000
  119        3.916070  -0.000000
  120        3.985357  -0.000000
  121        4.042078  -0.000000
  122        4.086670  -0.000000
  123        4.121801  -0.000000
  124        4.139319  -0.000000
  125        4.297154  -0.000000
  126        4.312597  -0.000000
  127        4.348016  -0.000000
  128        4.404054  -0.000000
  129        4.454281  -0.000000
  130        4.493386  -0.000000
  131        4.586506  -0.000000
  132        4.717517  -0.000000

  0.4444444E+00  0.3777319E-15  0.1262376E-14  0.2469136E-01
    1      -10.639550   1.000000
    2      -10.129371   1.000000
    3      -10.048189   1.000000
    4       -9.673176   1.000000
    5       -9.499451   1.000000
    6       -9.186115   1.000000
    7       -8.922005   1.000000
    8       -8.601774   1.000000
    9       -8.374319   1.000000
   10       -8.282157   1.000000
   11       -8.244596   1.000000
   12       -8.107934   1.000000
   13       -8.050030   1.000000
   14       -8.029367   1.000000
   15       -7.741997   1.000000
   16       -7.722205   1.000000
   17       -7.259196   1.000000
   18       -7.202686   1.000000
   19       -6.386595   1.000000
   20       -6.365579   1.000000
   21       -5.745665   1.000000
   22       -5.609096   1.000000
   23       -5.575894   1.000000
   24       -5.440119   1.000000
   25       -5.384830   1.000000
   26       -5.176634   1.000000
   27       -4.517903   1.000000
   28       -4.455128   1.000000
   29       -4.189838   1.000000
   30       -4.135241   1.000000
   31       -4.036500   1.000000
   32       -3.995732   1.000000
   33       -3.956152   1.000000
   34       -3.883629   1.000000
   35       -3.804324   1.000000
   36       -3.713593   1.000000
   37       -3.677319   1.000000
   38       -3.637371   1.000000
   39       -3.619810   1.000000
   40       -3.530238   1.000000
   41       -3.473596   1.000000
   42       -3.349918   1.000000
   43       -3.215994   1.000000
   44       -3.014942   1.000000
   45       -2.882822   1.000000
   46       -2.584940   1.000000
   47       -2.447900   1.000000
   48       -2.328565   1.000000
   49       -2.249439   1.000000
   50       -2.227951   1.000000
   51       -2.158559   1.000000
   52       -2.063765   1.000000
   53       -2.002479   1.000000
   54       -1.982896   1.000000
   55       -1.914935   1.000000
   56       -1.860871   1.000000
   57       -1.830540   1.000000
   58       -1.716508   1.000000
   59       -1.636948   1.000000
   60       -1.629105   1.000000
   61       -1.584415   1.000000
   62       -1.459994   1.000000
   63       -1.439480   1.000000
   64       -1.422785   1.000000
   65       -1.384685   1.000000
   66       -1.295324   1.000000
   67       -1.269200   1.000000
   68       -1.121765   1.000000
   69       -1.006800   1.000000
   70       -0.832482   1.000000
   71       -0.758428   1.000000
   72       -0.660084   1.000000
   73       -0.538042   1.000000
   74       -0.457839   1.000000
   75       -0.317332   1.000000
   76       -0.260500   1.000000
   77       -0.178113   1.000000
   78       -0.132452   1.000000
   79       -0.093248   1.000000
   80        0.006967   1.000000
   81        0.050855   1.000000
   82        0.235603   1.000000
   83        0.403026   1.000000
   84        0.422590   1.000000
   85        0.708994   1.000000
   86        0.863988   1.000000
   87        0.997216   1.000000
   88        1.105989   1.000000
   89        1.144306   1.000000
   90        1.282668   1.000000
   91        1.300640   1.000000
   92        1.401525   1.000000
   93        1.540355   1.000000
   94        1.646829   1.000000
   95        1.862153   1.000011
   96        1.932463   1.000093
   97        2.006460   1.000633
   98        2.270607   1.034461
   99        2.310560   1.033113
  100        2.447671   0.826033
  101        2.492745   0.665088
  102        2.652096   0.081180
  103        2.708533  -0.007690
  104        2.932652  -0.007991
  105        2.953639  -0.005611
  106        3.091092  -0.000284
  107        3.177376  -0.000025
  108        3.319676  -0.000000
  109        3.344194  -0.000000
  110        3.382530  -0.000000
  111        3.415079  -0.000000
  112        3.498484  -0.000000
  113        3.526675  -0.000000
  114        3.573160  -0.000000
  115        3.662692  -0.000000
  116        3.754814  -0.000000
  117        3.788777  -0.000000
  118        3.845185  -0.000000
  119        3.880821  -0.000000
  120        3.988266  -0.000000
  121        4.087006  -0.000000
  122        4.132091  -0.000000
  123        4.187746  -0.000000
  124        4.274132  -0.000000
  125        4.303298  -0.000000
  126        4.338450  -0.000000
  127        4.397807  -0.000000
  128        4.448489  -0.000000
  129        4.568240  -0.000000
  130        4.587495  -0.000000
  131        4.662547  -0.000000
  132        4.803448  -0.000000

  0.3742002E-15  0.1111111E+00  0.1262378E-14  0.2469136E-01
    1      -11.434751   1.000000
    2      -10.861724   1.000000
    3      -10.157352   1.000000
    4       -9.495548   1.000000
    5       -8.664276   1.000000
    6       -8.275480   1.000000
    7       -8.243399   1.000000
    8       -8.104203   1.000000
    9       -8.050377   1.000000
   10       -7.867751   1.000000
   11       -7.842649   1.000000
   12       -7.711926   1.000000
   13       -7.684191   1.000000
   14       -7.572086   1.000000
   15       -7.445921   1.000000
   16       -7.172841   1.000000
   17       -7.085237   1.000000
   18       -7.003883   1.000000
   19       -6.974548   1.000000
   20       -6.741945   1.000000
   21       -6.697820   1.000000
   22       -6.605669   1.000000
   23       -6.404467   1.000000
   24       -6.091006   1.000000
   25       -5.932225   1.000000
   26       -5.884205   1.000000
   27       -5.796688   1.000000
   28       -5.742809   1.000000
   29       -5.519515   1.000000
   30       -5.339753   1.000000
   31       -5.311661   1.000000
   32       -4.510224   1.000000
   33       -4.497500   1.000000
   34       -4.366630   1.000000
   35       -4.288672   1.000000
   36       -4.263813   1.000000
   37       -3.936569   1.000000
   38       -3.189690   1.000000
   39       -3.182005   1.000000
   40       -3.091634   1.000000
   41       -2.829938   1.000000
   42       -2.793032   1.000000
   43       -2.743670   1.000000
   44       -2.544125   1.000000
   45       -2.393571   1.000000
   46       -2.371228   1.000000
   47       -2.246936   1.000000
   48       -2.110914   1.000000
   49       -1.952756   1.000000
   50       -1.930151   1.000000
   51       -1.870159   1.000000
   52       -1.790421   1.000000
   53       -1.720334   1.000000
   54       -1.634737   1.000000
   55       -1.589579   1.000000
   56       -1.551283   1.000000
   57       -1.460161   1.000000
   58       -1.395826   1.000000
   59       -1.349447   1.000000
   60       -1.311686   1.000000
   61       -1.272380   1.000000
   62       -1.219707   1.000000
   63       -1.141512   1.000000
   64       -1.082323   1.000000
   65       -1.030553   1.000000
   66       -0.968628   1.000000
   67       -0.832219   1.000000
   68       -0.814969   1.000000
   69       -0.699885   1.000000
   70       -0.626356   1.000000
   71       -0.558544   1.000000
   72       -0.546441   1.000000
   73       -0.442985   1.000000
   74       -0.329510   1.000000
   75       -0.229235   1.000000
   76       -0.169038   1.000000
   77       -0.065843   1.000000
   78       -0.033988   1.000000
   79        0.064027   1.000000
   80        0.127824   1.000000
   81        0.237222   1.000000
   82        0.317927   1.000000
   83        0.579795   1.000000
   84        0.712281   1.000000
   85        0.719662   1.000000
   86        1.118516   1.000000
   87        1.167043   1.000000
   88        1.357530   1.000000
   89        1.436359   1.000000
   90        1.517959   1.000000
   91        1.536558   1.000000
   92        1.569148   1.000000
   93        1.585329   1.000000
   94        1.692628   1.000000
   95        1.838638   1.000005
   96        1.911299   1.000051
   97        1.987742   1.000401
   98        2.266628   1.033985
   99        2.599976   0.232145
  100        2.741135  -0.028997
  101        2.816822  -0.030980
  102        2.875282  -0.017973
  103        2.930269  -0.008303
  104        2.980869  -0.003400
  105        3.096689  -0.000246
  106        3.353687  -0.000000
  107        3.402516  -0.000000
  108        3.526436  -0.000000
  109        3.557419  -0.000000
  110        3.573072  -0.000000
  111        3.646014  -0.000000
  112        3.703158  -0.000000
  113        3.728667  -0.000000
  114        3.751866  -0.000000
  115        3.770598  -0.000000
  116        3.806647  -0.000000
  117        3.850879  -0.000000
  118        3.859660  -0.000000
  119        3.900048  -0.000000
  120        3.964844  -0.000000
  121        4.021707  -0.000000
  122        4.040098  -0.000000
  123        4.136476  -0.000000
  124        4.146784  -0.000000
  125        4.181823  -0.000000
  126        4.238298  -0.000000
  127        4.287153  -0.000000
  128        4.376331  -0.000000
  129        4.644918  -0.000000
  130        4.723437  -0.000000
  131        4.833973  -0.000000
  132        4.852392  -0.000000

  0.1111111E+00  0.1111111E+00  0.1262378E-14  0.2469136E-01
    1      -11.322087   1.000000
    2      -10.756506   1.000000
    3      -10.067774   1.000000
    4       -9.421541   1.000000
    5       -8.647202   1.000000
    6       -8.588168   1.000000
    7       -8.427615   1.000000
    8       -8.383295   1.000000
    9       -8.344815   1.000000
   10       -8.180337   1.000000
   11       -8.159376   1.000000
   12       -7.754303   1.000000
   13       -7.611788   1.000000
   14       -7.554446   1.000000
   15       -7.466857   1.000000
   16       -7.270409   1.000000
   17       -7.246792   1.000000
   18       -6.899647   1.000000
   19       -6.768990   1.000000
   20       -6.653136   1.000000
   21       -6.569977   1.000000
   22       -6.241550   1.000000
   23       -5.980332   1.000000
   24       -5.910618   1.000000
   25       -5.900793   1.000000
   26       -5.708829   1.000000
   27       -5.677322   1.000000
   28       -5.532695   1.000000
   29       -5.336749   1.000000
   30       -5.257279   1.000000
   31       -5.179062   1.000000
   32       -4.591233   1.000000
   33       -4.207686   1.000000
   34       -4.112050   1.000000
   35       -4.016778   1.000000
   36       -3.975343   1.000000
   37       -3.748475   1.000000
   38       -3.253107   1.000000
   39       -3.179914   1.000000
   40       -3.073132   1.000000
   41       -3.009152   1.000000
   42       -2.903357   1.000000
   43       -2.824806   1.000000
   44       -2.724996   1.000000
   45       -2.460566   1.000000
   46       -2.425979   1.000000
   47       -2.268260   1.000000
   48       -2.190448   1.000000
   49       -2.152509   1.000000
   50       -1.973559   1.000000
   51       -1.921841   1.000000
   52       -1.851009   1.000000
   53       -1.789053   1.000000
   54       -1.734465   1.000000
   55       -1.585596   1.000000
   56       -1.550513   1.000000
   57       -1.530449   1.000000
   58       -1.523303   1.000000
   59       -1.477799   1.000000
   60       -1.426488   1.000000
   61       -1.282733   1.000000
   62       -1.225768   1.000000
   63       -1.177752   1.000000
   64       -1.151159   1.000000
   65       -1.128115   1.000000
   66       -1.073669   1.000000
   67       -1.031187   1.000000
   68       -0.923105   1.000000
   69       -0.737656   1.000000
   70       -0.654339   1.000000
   71       -0.591048   1.000000
   72       -0.549882   1.000000
   73       -0.499891   1.000000
   74       -0.413207   1.000000
   75       -0.324287   1.000000
   76       -0.139503   1.000000
   77       -0.073014   1.000000
   78        0.032051   1.000000
   79        0.086028   1.000000
   80        0.159870   1.000000
   81        0.192873   1.000000
   82        0.398862   1.000000
   83        0.465928   1.000000
   84        0.504413   1.000000
   85        0.637654   1.000000
   86        0.708487   1.000000
   87        1.050312   1.000000
   88        1.400253   1.000000
   89        1.426815   1.000000
   90        1.438487   1.000000
   91        1.475368   1.000000
   92        1.547494   1.000000
   93        1.584581   1.000000
   94        1.621663   1.000000
   95        1.865806   1.000013
   96        1.878661   1.000019
   97        2.086318   1.003528
   98        2.270414   1.034440