   56   56    1    1
  0.1358781E+02  0.6088057E-09  0.6088057E-09  0.2372246E-08  0.5000000E-15
   1.0000000000000000E-004
  CAR 
 Name                                    
    202     41    132

  0.3742002E-15  0.3742002E-15  0.1262379E-14  0.1234568E-01
    1      -11.637473   1.000000
    2      -11.052067   1.000000
    3      -10.254529   1.000000
    4       -9.207109   1.000000
    5       -8.828897   1.000000
    6       -8.750588   1.000000
    7       -8.355597   1.000000
    8       -8.177769   1.000000
    9       -8.052150   1.000000
   10       -7.934070   1.000000
   11       -7.864040   1.000000
   12       -7.827489   1.000000
   13       -7.765342   1.000000
   14       -7.759297   1.000000
   15       -7.529258   1.000000
   16       -7.440484   1.000000
   17       -7.439497   1.000000
   18       -7.328032   1.000000
   19       -7.160674   1.000000
   20       -7.094746   1.000000
   21       -6.956692   1.000000
   22       -6.336797   1.000000
   23       -6.189638   1.000000
   24       -6.124085   1.000000
   25       -6.091217   1.000000
   26       -5.998617   1.000000
   27       -5.987834   1.000000
   28       -5.744918   1.000000
   29       -5.567218   1.000000
   30       -5.255798   1.000000
   31       -5.246307   1.000000
   32       -4.805288   1.000000
   33       -4.692384   1.000000
   34       -4.680486   1.000000
   35       -4.370246   1.000000
   36       -4.247541   1.000000
   37       -4.168857   1.000000
   38       -3.708917   1.000000
   39       -3.205293   1.000000
   40       -3.115546   1.000000
   41       -3.088702   1.000000
   42       -3.027244   1.000000
   43       -2.742241   1.000000
   44       -2.676150   1.000000
   45       -2.639062   1.000000
   46       -2.542749   1.000000
   47       -2.439531   1.000000
   48       -2.336238   1.000000
   49       -2.328611   1.000000
   50       -2.249020   1.000000
   51       -2.124721   1.000000
   52       -2.007187   1.000000
   53       -1.979339   1.000000
   54       -1.932189   1.000000
   55       -1.891846   1.000000
   56       -1.883329   1.000000
   57       -1.823095   1.000000
   58       -1.747735   1.000000
   59       -1.746560   1.000000
   60       -1.542322   1.000000
   61       -1.504496   1.000000
   62       -1.391537   1.000000
   63       -1.358994   1.000000
   64       -1.230101   1.000000
   65       -1.190294   1.000000
   66       -1.182331   1.000000
   67       -0.954568   1.000000
   68       -0.878272   1.000000
   69       -0.875263   1.000000
   70       -0.737598   1.000000
   71       -0.733800   1.000000
   72       -0.712866   1.000000
   73       -0.673022   1.000000
   74       -0.644114   1.000000
   75       -0.462796   1.000000
   76       -0.174224   1.000000
   77       -0.169431   1.000000
   78       -0.166794   1.000000
   79       -0.097974   1.000000
   80        0.045945   1.000000
   81        0.280848   1.000000
   82        0.562998   1.000000
   83        0.568316   1.000000
   84        0.684100   1.000000
   85        1.014087   1.000000
   86        1.019749   1.000000
   87        1.142470   1.000000
   88        1.243719   1.000000
   89        1.265132   1.000000
   90        1.277207   1.000000
   91        1.432638   1.000000
   92        1.448287   1.000000
   93        1.505107   1.000000
   94        1.511058   1.000000
   95        1.618051   1.000000
   96        1.793909   1.000000
   97        1.939671   1.000015
   98        2.102478   1.001186
   99        2.345154   1.035003
  100        2.581617   0.583277
  101        2.650945   0.297339
  102        2.862006  -0.034611
  103        2.930194  -0.021048
  104        3.013420  -0.006552
  105        3.138516  -0.000486
  106        3.193183  -0.000117
  107        3.326419  -0.000002
  108        3.401609  -0.000000
  109        3.509372  -0.000000
  110        3.519363  -0.000000
  111        3.577866  -0.000000
  112        3.608047  -0.000000
  113        3.643758  -0.000000
  114        3.732771  -0.000000
  115        3.750871  -0.000000
  116        3.831369  -0.000000
  117        3.854741  -0.000000
  118        3.915453  -0.000000
  119        3.978380  -0.000000
  120        4.066084  -0.000000
  121        4.140234  -0.000000
  122        4.249987  -0.000000
  123        4.255788  -0.000000
  124        4.278755  -0.000000
  125        4.333089  -0.000000
  126        4.551318  -0.000000
  127        4.628504  -0.000000
  128        5.359634  -0.000000
  129        5.742077  -0.000000
  130        5.894230  -0.000000
  131        6.074960  -0.000000
  132        6.237262  -0.000000

  0.1111111E+00  0.3857958E-15  0.1262379E-14  0.2469136E-01
    1      -11.580071   1.000000
    2      -10.999379   1.000000
    3      -10.213439   1.000000
    4       -9.172087   1.000000
    5       -8.795123   1.000000
    6       -8.769541   1.000000
    7       -8.510206   1.000000
    8       -8.374789   1.000000
    9       -8.206806   1.000000
   10       -8.121026   1.000000
   11       -8.081981   1.000000
   12       -8.039021   1.000000
   13       -7.900088   1.000000
   14       -7.870048   1.000000
   15       -7.612500   1.000000
   16       -7.276902   1.000000
   17       -7.211699   1.000000
   18       -7.020031   1.000000
   19       -6.973120   1.000000
   20       -6.882425   1.000000
   21       -6.677937   1.000000
   22       -6.363223   1.000000
   23       -6.227324   1.000000
   24       -6.130287   1.000000
   25       -6.039526   1.000000
   26       -5.961554   1.000000
   27       -5.843106   1.000000
   28       -5.785735   1.000000
   29       -5.498877   1.000000
   30       -5.381476   1.000000
   31       -5.116567   1.000000
   32       -4.690008   1.000000
   33       -4.655241   1.000000
   34       -4.485439   1.000000
   35       -4.324753   1.000000
   36       -4.117777   1.000000
   37       -3.975291   1.000000
   38       -3.674716   1.000000
   39       -3.247010   1.000000
   40       -3.176381   1.000000
   41       -3.053710   1.000000
   42       -3.010506   1.000000
   43       -2.830388   1.000000
   44       -2.718501   1.000000
   45       -2.687094   1.000000
   46       -2.654697   1.000000
   47       -2.585912   1.000000
   48       -2.477165   1.000000
   49       -2.309549   1.000000
   50       -2.201046   1.000000
   51       -2.147165   1.000000
   52       -2.034379   1.000000
   53       -1.948840   1.000000
   54       -1.924602   1.000000
   55       -1.892256   1.000000
   56       -1.860512   1.000000
   57       -1.846129   1.000000
   58       -1.755114   1.000000
   59       -1.732850   1.000000
   60       -1.549943   1.000000
   61       -1.511719   1.000000
   62       -1.438676   1.000000
   63       -1.410915   1.000000
   64       -1.327382   1.000000
   65       -1.225907   1.000000
   66       -1.204805   1.000000
   67       -1.073894   1.000000
   68       -0.967682   1.000000
   69       -0.917834   1.000000
   70       -0.786754   1.000000
   71       -0.747745   1.000000
   72       -0.713274   1.000000
   73       -0.636281   1.000000
   74       -0.575069   1.000000
   75       -0.443184   1.000000
   76       -0.278528   1.000000
   77       -0.235054   1.000000
   78       -0.184540   1.000000
   79       -0.064955   1.000000
   80       -0.006165   1.000000
   81        0.113423   1.000000
   82        0.334228   1.000000
   83        0.488561   1.000000
   84        0.623366   1.000000
   85        0.834092   1.000000
   86        0.844025   1.000000
   87        1.053727   1.000000
   88        1.150064   1.000000
   89        1.290674   1.000000
   90        1.323176   1.000000
   91        1.352868   1.000000
   92        1.401830   1.000000
   93        1.460757   1.000000
   94        1.623457   1.000000
   95        1.664582   1.000000
   96        1.713098   1.000000
   97        2.140960   1.002676
   98        2.350244   1.035315
   99        2.501694   0.869301
  100        2.536393   0.759639
  101        2.700449   0.132537
  102        2.781910  -0.011832
  103        2.816645  -0.031335
  104        2.960474  -0.014611
  105        3.048022  -0.003507
  106        3.282153  -0.000008
  107        3.393066  -0.000000
  108        3.440670  -0.000000
  109        3.483598  -0.000000
  110        3.530546  -0.000000
  111        3.570851  -0.000000
  112        3.583622  -0.000000
  113        3.669949  -0.000000
  114        3.680314  -0.000000
  115        3.716143  -0.000000
  116        3.787418  -0.000000
  117        3.823208  -0.000000
  118        3.843532  -0.000000
  119        3.905569  -0.000000
  120        3.921237  -0.000000
  121        4.003531  -0.000000
  122        4.053625  -0.000000
  123        4.097048  -0.000000
  124        4.203509  -0.000000
  125        4.268914  -0.000000
  126        4.466027  -0.000000
  127        4.991430  -0.000000
  128        5.492805  -0.000000
  129        5.886163  -0.000000
  130        6.050711  -0.000000
  131        6.162235  -0.000000
  132        6.278025  -0.000000

  0.2222222E+00  0.3935346E-15  0.1262379E-14  0.2469136E-01
    1      -11.410014   1.000000
    2      -10.843688   1.000000
    3      -10.093165   1.000000
    4       -9.092911   1.000000
    5       -9.067503   1.000000
    6       -8.878735   1.000000
    7       -8.819889   1.000000
    8       -8.687666   1.000000
    9       -8.367393   1.000000
   10       -8.302704   1.000000
   11       -8.267833   1.000000
   12       -8.127918   1.000000
   13       -8.118238   1.000000
   14       -8.046321   1.000000
   15       -7.845379   1.000000
   16       -7.177978   1.000000
   17       -6.880693   1.000000
   18       -6.863676   1.000000
   19       -6.692603   1.000000
   20       -6.596321   1.000000
   21       -6.374407   1.000000
   22       -6.139237   1.000000
   23       -6.043074   1.000000
   24       -6.002397   1.000000
   25       -5.922099   1.000000
   26       -5.878224   1.000000
   27       -5.764563   1.000000
   28       -5.652171   1.000000
   29       -5.260217   1.000000
   30       -5.215988   1.000000
   31       -4.829567   1.000000
   32       -4.530412   1.000000
   33       -4.498893   1.000000
   34       -4.229175   1.000000
   35       -4.000524   1.000000
   36       -3.931277   1.000000
   37       -3.608551   1.000000
   38       -3.490412   1.000000
   39       -3.419411   1.000000
   40       -3.347911   1.000000
   41       -3.224004   1.000000
   42       -3.206186   1.000000
   43       -3.022842   1.000000
   44       -2.940272   1.000000
   45       -2.895448   1.000000
   46       -2.638236   1.000000
   47       -2.565872   1.000000
   48       -2.533073   1.000000
   49       -2.281515   1.000000
   50       -2.231563   1.000000
   51       -2.168141   1.000000
   52       -2.161222   1.000000
   53       -2.024027   1.000000
   54       -2.007507   1.000000
   55       -1.953473   1.000000
   56       -1.935198   1.000000
   57       -1.825851   1.000000
   58       -1.797083   1.000000
   59       -1.762387   1.000000
   60       -1.598181   1.000000
   61       -1.554158   1.000000
   62       -1.532985   1.000000
   63       -1.488494   1.000000
   64       -1.456302   1.000000
   65       -1.331211   1.000000
   66       -1.298973   1.000000
   67       -1.223090   1.000000
   68       -1.104712   1.000000
   69       -1.029234   1.000000
   70       -1.000874   1.000000
   71       -0.810693   1.000000
   72       -0.782092   1.000000
   73       -0.709347   1.000000
   74       -0.556292   1.000000
   75       -0.523470   1.000000
   76       -0.410656   1.000000
   77       -0.394551   1.000000
   78       -0.291326   1.000000
   79       -0.178194   1.000000
   80       -0.029686   1.000000
   81        0.043493   1.000000
   82        0.165259   1.000000
   83        0.405381   1.000000
   84        0.469642   1.000000
   85        0.657392   1.000000
   86        0.683297   1.000000
   87        0.883443   1.000000
   88        0.941309   1.000000
   89        1.130686   1.000000
   90        1.208676   1.000000
   91        1.283331   1.000000
   92        1.321383   1.000000
   93        1.502077   1.000000
   94        1.515776   1.000000
   95        1.659682   1.000000
   96        1.854437   1.000001
   97        2.129763   1.002131
   98        2.273167   1.021173
   99        2.463151   0.956788
  100        2.598326   0.513025
  101        2.728354   0.065004
  102        2.910836  -0.025509
  103        2.960522  -0.014602
  104        3.070786  -0.002233
  105        3.130064  -0.000596
  106        3.247596  -0.000024
  107        3.294068  -0.000006
  108        3.325574  -0.000002
  109        3.356891  -0.000001
  110        3.380667  -0.000000
  111        3.412508  -0.000000
  112        3.551932  -0.000000
  113        3.606931  -0.000000
  114        3.651646  -0.000000
  115        3.679752  -0.000000
  116        3.718257  -0.000000
  117        3.778028  -0.000000
  118        3.783398  -0.000000
  119        3.818447  -0.000000
  120        3.922504  -0.000000
  121        3.926997  -0.000000
  122        3.988096  -0.000000
  123        4.044031  -0.000000
  124        4.140843  -0.000000
  125        4.215235  -0.000000
  126        4.266430  -0.000000
  127        4.348413  -0.000000
  128        4.471774  -0.000000
  129        4.774225  -0.000000
  130        4.920889  -0.000000
  131        5.873309  -0.000000
  132        6.267220  -0.000000

  0.3333333E+00  0.3939838E-15  0.1262379E-14  0.2469136E-01
    1      -11.134632   1.000000
    2      -10.592523   1.000000
    3       -9.902702   1.000000
    4       -9.695180   1.000000
    5       -9.341568   1.000000
    6       -9.071055   1.000000
    7       -8.903664   1.000000
    8       -8.519763   1.000000
    9       -8.468260   1.000000
   10       -8.431871   1.000000
   11       -8.423441   1.000000
   12       -8.264434   1.000000
   13       -8.183768   1.000000
   14       -8.124231   1.000000
   15       -8.092967   1.000000
   16       -7.545264   1.000000
   17       -6.703779   1.000000
   18       -6.646579   1.000000
   19       -6.514191   1.000000
   20       -6.225192   1.000000
   21       -6.132247   1.000000
   22       -6.082506   1.000000
   23       -5.964726   1.000000
   24       -5.918808   1.000000
   25       -5.894619   1.000000
   26       -5.671190   1.000000
   27       -5.207758   1.000000
   28       -5.027346   1.000000
   29       -4.913392   1.000000
   30       -4.631245   1.000000
   31       -4.516443   1.000000
   32       -4.309960   1.000000
   33       -4.228191   1.000000
   34       -4.106801   1.000000
   35       -3.845068   1.000000
   36       -3.759097   1.000000
   37       -3.720588   1.000000
   38       -3.685042   1.000000
   39       -3.651576   1.000000
   40       -3.538854   1.000000
   41       -3.510128   1.000000
   42       -3.405800   1.000000
   43       -3.021785   1.000000
   44       -2.843416   1.000000
   45       -2.794330   1.000000
   46       -2.777518   1.000000
   47       -2.622460   1.000000
   48       -2.523958   1.000000
   49       -2.469535   1.000000
   50       -2.366767   1.000000
   51       -2.270800   1.000000
   52       -2.233652   1.000000
   53       -2.161577   1.000000
   54       -2.109240   1.000000
   55       -2.087099   1.000000
   56       -1.997077   1.000000
   57       -1.984462   1.000000
   58       -1.888269   1.000000
   59       -1.828677   1.000000
   60       -1.731072   1.000000
   61       -1.676608   1.000000
   62       -1.577815   1.000000
   63       -1.527509   1.000000
   64       -1.502151   1.000000
   65       -1.469480   1.000000
   66       -1.383646   1.000000
   67       -1.281398   1.000000
   68       -1.241556   1.000000
   69       -1.194142   1.000000
   70       -1.096300   1.000000
   71       -0.919752   1.000000
   72       -0.839993   1.000000
   73       -0.809181   1.000000
   74       -0.680015   1.000000
   75       -0.636105   1.000000
   76       -0.571682   1.000000
   77       -0.459650   1.000000
   78       -0.423397   1.000000
   79       -0.275298   1.000000
   80       -0.135298   1.000000
   81       -0.034630   1.000000
   82        0.173634   1.000000
   83        0.389657   1.000000
   84        0.442517   1.000000
   85        0.638731   1.000000
   86        0.672143   1.000000
   87        0.760015   1.000000
   88        0.891290   1.000000
   89        0.993429   1.000000
   90        1.016479   1.000000
   91        1.171223   1.000000
   92        1.280013   1.000000
   93        1.394357   1.000000
   94        1.461413   1.000000
   95        1.547586   1.000000
   96        1.952015   1.000022
   97        2.044822   1.000298
   98        2.104861   1.001250
   99        2.306722   1.028819
  100        2.624741   0.401998
  101        2.664056   0.248771
  102        2.710981   0.104746
  103        2.860162  -0.034790
  104        2.915969  -0.024324
  105        2.983392  -0.010578
  106        3.064369  -0.002544
  107        3.175771  -0.000188
  108        3.190551  -0.000126
  109        3.258734  -0.000017
  110        3.348080  -0.000001
  111        3.436051  -0.000000
  112        3.439134  -0.000000
  113        3.479553  -0.000000
  114        3.568637  -0.000000
  115        3.597076  -0.000000
  116        3.702125  -0.000000
  117        3.783709  -0.000000
  118        3.814051  -0.000000
  119        3.824815  -0.000000
  120        3.898759  -0.000000
  121        3.953545  -0.000000
  122        4.043736  -0.000000
  123        4.101650  -0.000000
  124        4.144172  -0.000000
  125        4.198737  -0.000000
  126        4.247932  -0.000000
  127        4.287777  -0.000000
  128        4.480662  -0.000000
  129        4.590000  -0.000000
  130        4.609937  -0.000000
  131        4.778386  -0.000000
  132        5.696216  -0.000000

  0.4444444E+00  0.3881204E-15  0.1262379E-14  0.2469136E-01
    1      -10.780375   1.000000
    2      -10.266887   1.000000
    3      -10.217386   1.000000
    4       -9.800507   1.000000
    5       -9.657202   1.000000
    6       -9.356483   1.000000
    7       -8.685637   1.000000
    8       -8.517293   1.000000
    9       -8.514971   1.000000
   10       -8.490949   1.000000
   11       -8.417667   1.000000
   12       -8.328484   1.000000
   13       -8.253006   1.000000
   14       -8.234067   1.000000
   15       -8.084063   1.000000
   16       -7.921674   1.000000
   17       -6.659420   1.000000
   18       -6.539044   1.000000
   19       -6.504384   1.000000
   20       -6.223563   1.000000
   21       -5.997794   1.000000
   22       -5.856739   1.000000
   23       -5.799132   1.000000
   24       -5.747092   1.000000
   25       -5.677732   1.000000
   26       -5.562623   1.000000
   27       -4.620679   1.000000
   28       -4.471975   1.000000
   29       -4.396754   1.000000
   30       -4.314952   1.000000
   31       -4.228673   1.000000
   32       -4.196009   1.000000
   33       -4.095184   1.000000
   34       -4.056734   1.000000
   35       -3.969505   1.000000
   36       -3.954871   1.000000
   37       -3.870036   1.000000
   38       -3.854728   1.000000
   39       -3.697270   1.000000
   40       -3.674230   1.000000
   41       -3.572440   1.000000
   42       -3.480463   1.000000
   43       -3.380155   1.000000
   44       -3.288197   1.000000
   45       -2.820615   1.000000
   46       -2.779457   1.000000
   47       -2.639457   1.000000
   48       -2.559813   1.000000
   49       -2.526240   1.000000
   50       -2.385194   1.000000
   51       -2.374073   1.000000
   52       -2.254054   1.000000
   53       -2.197386   1.000000
   54       -2.145632   1.000000
   55       -2.107494   1.000000
   56       -2.057296   1.000000
   57       -2.008917   1.000000
   58       -1.973460   1.000000
   59       -1.883734   1.000000
   60       -1.780758   1.000000
   61       -1.710070   1.000000
   62       -1.649505   1.000000
   63       -1.601497   1.000000
   64       -1.563736   1.000000
   65       -1.477575   1.000000
   66       -1.458963   1.000000
   67       -1.341061   1.000000
   68       -1.240477   1.000000
   69       -1.204948   1.000000
   70       -1.121148   1.000000
   71       -1.046394   1.000000
   72       -0.935295   1.000000
   73       -0.825477   1.000000
   74       -0.763651   1.000000
   75       -0.714497   1.000000
   76       -0.627631   1.000000
   77       -0.609645   1.000000
   78       -0.467210   1.000000
   79       -0.391341   1.000000
   80       -0.153705   1.000000
   81       -0.020796   1.000000
   82        0.095105   1.000000
   83        0.392885   1.000000
   84        0.575691   1.000000
   85        0.597989   1.000000
   86        0.641931   1.000000
   87        0.756176   1.000000
   88        0.791753   1.000000
   89        0.905467   1.000000
   90        0.992128   1.000000
   91        1.050494   1.000000
   92        1.242756   1.000000
   93        1.274717   1.000000
   94        1.581554   1.000000
   95        1.675165   1.000000
   96        1.881017   1.000002
   97        2.102606   1.001189
   98        2.174756   1.005077
   99        2.206871   1.008724
  100        2.266520   1.019675
  101        2.331048   1.033378
  102        2.600924   0.502036
  103        2.707951   0.112458
  104        2.791448  -0.019159
  105        2.850738  -0.035386
  106        2.927985  -0.021552
  107        3.018153  -0.006043
  108        3.111983  -0.000911
  109        3.201133  -0.000094
  110        3.266334  -0.000014
  111        3.294601  -0.000005
  112        3.379403  -0.000000
  113        3.407907  -0.000000
  114        3.492247  -0.000000
  115        3.522035  -0.000000
  116        3.654833  -0.000000
  117        3.734574  -0.000000
  118        3.800219  -0.000000
  119        3.824234  -0.000000
  120        3.896270  -0.000000
  121        3.986136  -0.000000
  122        4.067041  -0.000000
  123        4.135866  -0.000000
  124        4.279595  -0.000000
  125        4.318966  -0.000000
  126        4.440962  -0.000000
  127        4.447332  -0.000000
  128        4.780949  -0.000000
  129        4.844999  -0.000000
  130        4.929813  -0.000000
  131        4.993111  -0.000000
  132        5.260022  -0.000000

  0.3742002E-15  0.1111111E+00  0.1262379E-14  0.2469136E-01
    1      -11.580071   1.000000
    2      -10.999378   1.000000
    3      -10.213441   1.000000
    4       -9.172094   1.000000
    5       -8.795119   1.000000
    6       -8.769536   1.000000
    7       -8.510227   1.000000
    8       -8.374865   1.000000
    9       -8.206805   1.000000
   10       -8.121048   1.000000
   11       -8.081926   1.000000
   12       -8.039013   1.000000
   13       -7.900041   1.000000
   14       -7.869993   1.000000
   15       -7.612502   1.000000
   16       -7.276916   1.000000
   17       -7.211672   1.000000
   18       -7.020082   1.000000
   19       -6.972942   1.000000
   20       -6.882591   1.000000
   21       -6.677933   1.000000
   22       -6.363156   1.000000
   23       -6.227396   1.000000
   24       -6.130287   1.000000
   25       -6.039240   1.000000
   26       -5.961675   1.000000
   27       -5.843137   1.000000
   28       -5.785799   1.000000
   29       -5.498997   1.000000
   30       -5.381580   1.000000
   31       -5.116777   1.000000
   32       -4.690033   1.000000
   33       -4.655209   1.000000
   34       -4.485456   1.000000
   35       -4.323968   1.000000
   36       -4.117786   1.000000
   37       -3.975636   1.000000
   38       -3.674774   1.000000
   39       -3.247017   1.000000
   40       -3.176405   1.000000
   41       -3.053658   1.000000
   42       -3.010577   1.000000
   43       -2.830088   1.000000
   44       -2.718503   1.000000
   45       -2.687032   1.000000
   46       -2.655058   1.000000
   47       -2.585982   1.000000
   48       -2.476993   1.000000
   49       -2.309514   1.000000
   50       -2.200961   1.000000
   51       -2.147312   1.000000
   52       -2.034554   1.000000
   53       -1.948472   1.000000
   54       -1.924699   1.000000
   55       -1.892233   1.000000
   56       -1.860463   1.000000
   57       -1.846121   1.000000
   58       -1.755282   1.000000
   59       -1.732890   1.000000
   60       -1.549792   1.000000
   61       -1.511861   1.000000
   62       -1.439178   1.000000
   63       -1.410324   1.000000
   64       -1.327761   1.000000
   65       -1.225669   1.000000
   66       -1.204883   1.000000
   67       -1.073485   1.000000
   68       -0.967841   1.000000
   69       -0.917911   1.000000
   70       -0.786689   1.000000
   71       -0.747889   1.000000
   72       -0.713147   1.000000
   73       -0.636350   1.000000
   74       -0.575196   1.000000
   75       -0.443197   1.000000
   76       -0.278637   1.000000
   77       -0.234912   1.000000
   78       -0.184730   1.000000
   79       -0.064918   1.000000
   80       -0.006403   1.000000
   81        0.113876   1.000000
   82        0.333977   1.000000
   83        0.488753   1.000000
   84        0.623275   1.000000
   85        0.834050   1.000000
   86        0.844059   1.000000
   87        1.053701   1.000000
   88        1.150029   1.000000
   89        1.290746   1.000000
   90        1.323127   1.000000
   91        1.352954   1.000000
   92        1.401742   1.000000
   93        1.460611   1.000000
   94        1.623730   1.000000
   95        1.664275   1.000000
   96        1.713533   1.000000
   97        2.140802   1.002667
   98        2.350504   1.035327
   99        2.501545   0.869713
  100        2.536415   0.759561
  101        2.700380   0.132730
  102        2.781834  -0.011767
  103        2.816756  -0.031369
  104        2.960245  -0.014655
  105        3.048178  -0.003497
  106        3.282483  -0.000008
  107        3.393399  -0.000000
  108        3.440489  -0.000000
  109        3.483558  -0.000000
  110        3.530755  -0.000000
  111        3.569426  -0.000000
  112        3.584424  -0.000000
  113        3.669683  -0.000000
  114        3.680442  -0.000000
  115        3.709559  -0.000000
  116        3.780973  -0.000000
  117        3.829117  -0.000000
  118        3.847340  -0.000000
  119        3.915453  -0.000000
  120        3.956015  -0.000000
  121        3.990924  -0.000000
  122        4.054427  -0.000000
  123        4.100794  -0.000000
  124        4.237203  -0.000000
  125        4.267730  -0.000000
  126        4.500828  -0.000000
  127        4.858513  -0.000000
  128        5.524726  -0.000000
  129        5.878288  -0.000000
  130        6.032728  -0.000000
  131        6.179521  -0.000000
  132        6.332998  -0.000000

  0.1111111E+00  0.1111111E+00  0.1262379E-14  0.2469136E-01
    1      -11.465695   1.000000
    2      -10.894623   1.000000
    3      -10.131321   1.000000
    4       -9.095257   1.000000
    5       -8.837650   1.000000
    6       -8.802254   1.000000
    7       -8.723565   1.000000
    8       -8.634563   1.000000
    9       -8.584210   1.000000
   10       -8.391909   1.000000
   11       -8.356759   1.000000
   12       -8.095377   1.000000
   13       -7.896164   1.000000
   14       -7.828547   1.000000
   15       -7.496985   1.000000
   16       -7.457029   1.000000
   17       -7.025312   1.000000
   18       -6.997928   1.000000
   19       -6.867869   1.000000
   20       -6.407434   1.000000
   21       -6.378656   1.000000
   22       -6.280308   1.000000
   23       -6.082028   1.000000
   24       -6.046514   1.000000
   25       -5.940504   1.000000
   26       -5.836405   1.000000
   27       -5.719492   1.000000
   28       -5.628730   1.000000
   29       -5.460355   1.000000
   30       -5.400121   1.000000
   31       -5.062233   1.000000
   32       -4.791594   1.000000
   33       -4.266947   1.000000
   34       -4.240385   1.000000
   35       -4.098346   1.000000
   36       -4.026599   1.000000
   37       -3.664265   1.000000
   38       -3.559242   1.000000
   39       -3.412476   1.000000
   40       -3.355027   1.000000
   41       -3.226907   1.000000
   42       -2.965724   1.000000
   43       -2.932850   1.000000
   44       -2.931487   1.000000
   45       -2.740349   1.000000
   46       -2.644816   1.000000
   47       -2.540660   1.000000
   48       -2.455175   1.000000
   49       -2.339791   1.000000
   50       -2.339556   1.000000
   51       -2.166802   1.000000
   52       -2.140582   1.000000
   53       -2.025590   1.000000
   54       -1.915644   1.000000
   55       -1.893124   1.000000
   56       -1.862828   1.000000
   57       -1.847265   1.000000
   58       -1.819716   1.000000
   59       -1.719061   1.000000
   60       -1.653670   1.000000
   61       -1.500027   1.000000
   62       -1.478687   1.000000
   63       -1.470977   1.000000
   64       -1.417780   1.000000
   65       -1.323548   1.000000
   66       -1.289018   1.000000
   67       -1.151140   1.000000
   68       -1.105215   1.000000
   69       -0.995866   1.000000
   70       -0.853335   1.000000
   71       -0.791070   1.000000
   72       -0.746448   1.000000
   73       -0.725333   1.000000
   74       -0.637679   1.000000
   75       -0.552903   1.000000
   76       -0.368141   1.000000
   77       -0.313977   1.000000
   78       -0.230652   1.000000
   79       -0.109007   1.000000
   80       -0.021554   1.000000
   81        0.072111   1.000000
   82        0.235314   1.000000
   83        0.294629   1.000000
   84        0.540422   1.000000
   85        0.549134   1.000000
   86        0.785934   1.000000
   87        0.970870   1.000000
   88        1.151753   1.000000
   89        1.211052   1.000000
   90        1.256498   1.000000
   91        1.272926   1.000000
   92        1.317602   1.000000
   93        1.404450   1.000000
   94        1.515541   1.000000
   95        1.642500   1.000000
   96        1.850208   1.000001
   97        2.223104   1.011170
   98        2.333079   1.033671