 running on   54 total cores
 distrk:  each k-point on   54 cores,    1 groups
 distr:  one band on    9 cores,    6 groups
 using from now: INCAR     
 vasp.5.4.4.18Apr17-6-g9f103f2a35 (build Dec  7 2020 12:43:57) complex           
 POSCAR found type information on POSCAR  Mo V  B  H 
 POSCAR found :  4 types and      56 ions
 scaLAPACK will be used

 ----------------------------------------------------------------------------- 
|                                                                             |
|  ADVICE TO THIS USER RUNNING 'VASP/VAMP'   (HEAR YOUR MASTER'S VOICE ...):  |
|                                                                             |
|      You enforced a specific xc-type in the INCAR file,                     |
|      a different type was found on the POTCAR file                          |
|          I HOPE YOU KNOW, WHAT YOU ARE  DOING                               |
|                                                                             |
 ----------------------------------------------------------------------------- 

 LDA part: xc-table for Pade appr. of Perdew
 POSCAR, INCAR and KPOINTS ok, starting setup
 resort distribution
 resort distribution
 resort distribution
 resort distribution
 resort distribution
 resort distribution
 resort distribution
 resort distribution
 resort distribution
 resort distribution
 resort distribution
 resort distribution
 resort distribution
 resort distribution
 resort distribution
 resort distribution
 resort distribution
 resort distribution
 resort distribution
 resort distribution
 resort distribution
 resort distribution
 resort distribution
 resort distribution
 resort distribution
 resort distribution
 resort distribution
 resort distribution
 resort distribution
 resort distribution
 resort distribution
 resort distribution
 resort distribution
 resort distribution
 resort distribution
 resort distribution
 resort distribution
 resort distribution
 resort distribution
 resort distribution
 resort distribution
 resort distribution
 resort distribution
 resort distribution
 resort distribution
 resort distribution
 resort distribution
 resort distribution
 resort distribution
 resort distribution
 resort distribution
 resort distribution
 resort distribution
 resort distribution
 FFT: planning ...
 WAVECAR not read
 augmentation electrons   202.02839738483451     
 soft         electrons   0.0000000000000000     
 augmentation electrons   202.02839738483451     
 soft         electrons   0.0000000000000000     
 augmentation electrons   202.02839738483451     
 soft         electrons   0.0000000000000000     
 augmentation electrons   202.02839738483451     
 soft         electrons   0.0000000000000000     
 augmentation electrons   202.02839738483451     
 soft         electrons   0.0000000000000000     
 augmentation electrons   202.02839738483451     
 soft         electrons   0.0000000000000000     
 augmentation electrons   202.02839738483451     
 soft         electrons   0.0000000000000000     
 augmentation electrons   202.02839738483451     
 soft         electrons   0.0000000000000000     
 augmentation electrons   202.02839738483451     
 soft         electrons   0.0000000000000000     
 augmentation electrons   202.02839738483451     
 soft         electrons   0.0000000000000000     
 augmentation electrons   202.02839738483451     
 soft         electrons   0.0000000000000000     
 augmentation electrons   202.02839738483451     
 soft         electrons   0.0000000000000000     
 augmentation electrons   202.02839738483451     
 soft         electrons   0.0000000000000000     
 augmentation electrons   202.02839738483451     
 soft         electrons   0.0000000000000000     
 augmentation electrons   202.02839738483451     
 soft         electrons   0.0000000000000000     
 augmentation electrons   202.02839738483451     
 soft         electrons   0.0000000000000000     
 augmentation electrons   202.02839738483451     
 soft         electrons   0.0000000000000000     
 augmentation electrons   202.02839738483451     
 soft         electrons   0.0000000000000000     
 augmentation electrons   202.02839738483451     
 soft         electrons   0.0000000000000000     
 augmentation electrons   202.02839738483451     
 soft         electrons   0.0000000000000000     
 augmentation electrons   202.02839738483451     
 soft         electrons   0.0000000000000000     
 augmentation electrons   202.02839738483451     
 soft         electrons   0.0000000000000000     
 augmentation electrons   202.02839738483451     
 soft         electrons   0.0000000000000000     
 augmentation electrons   202.02839738483451     
 soft         electrons   0.0000000000000000     
 augmentation electrons   202.02839738483451     
 soft         electrons   0.0000000000000000     
 augmentation electrons   202.02839738483451     
 soft         electrons   0.0000000000000000     
 augmentation electrons   202.02839738483451     
 soft         electrons   0.0000000000000000     
 augmentation electrons   202.02839738483451     
 soft         electrons   0.0000000000000000     
 augmentation electrons   202.02839738483451     
 soft         electrons   0.0000000000000000     
 augmentation electrons   202.02839738483451     
 soft         electrons   0.0000000000000000     
 augmentation electrons   202.02839738483451     
 soft         electrons   0.0000000000000000     
 augmentation electrons   202.02839738483451     
 soft         electrons   0.0000000000000000     
 augmentation electrons   202.02839738483451     
 soft         electrons   0.0000000000000000     
 augmentation electrons   202.02839738483451     
 soft         electrons   0.0000000000000000     
 augmentation electrons   202.02839738483451     
 soft         electrons   0.0000000000000000     
 augmentation electrons   202.02839738483451     
 soft         electrons   0.0000000000000000     
 augmentation electrons   202.02839738483451     
 soft         electrons   0.0000000000000000     
 augmentation electrons   202.02839738483451     
 soft         electrons   0.0000000000000000     
 augmentation electrons   202.02839738483451     
 soft         electrons   0.0000000000000000     
 augmentation electrons   202.02839738483451     
 soft         electrons   0.0000000000000000     
 augmentation electrons   202.02839738483451     
 soft         electrons   0.0000000000000000     
 augmentation electrons   202.02839738483451     
 soft         electrons   0.0000000000000000     
 augmentation electrons   202.02839738483451     
 soft         electrons   0.0000000000000000     
 augmentation electrons   202.02839738483451     
 soft         electrons   0.0000000000000000     
 augmentation electrons   202.02839738483451     
 soft         electrons   0.0000000000000000     
 augmentation electrons   202.02839738483451     
 soft         electrons   0.0000000000000000     
 augmentation electrons   202.02839738483451     
 soft         electrons   0.0000000000000000     
 augmentation electrons   202.02839738483451     
 soft         electrons   0.0000000000000000     
 augmentation electrons   202.02839738483451     
 soft         electrons   0.0000000000000000     
 augmentation electrons   202.02839738483451     
 soft         electrons   0.0000000000000000     
 augmentation electrons   202.02839738483451     
 soft         electrons   0.0000000000000000     
 augmentation electrons   202.02839738483451     
 soft         electrons   0.0000000000000000     
 augmentation electrons   202.02839738483451     
 soft         electrons   0.0000000000000000     
 augmentation electrons   202.02839738483451     
 soft         electrons   0.0000000000000000     
 total        electrons   202.02839738483451     
 total        electrons   202.02839738483451     
 total        electrons   202.02839738483451     
 total        electrons   202.02839738483451     
 total        electrons   202.02839738483451     
 total        electrons   202.02839738483451     
 total        electrons   202.02839738483451     
 total        electrons   202.02839738483451     
 total        electrons   202.02839738483451     
 total        electrons   202.02839738483451     
 total        electrons   202.02839738483451     
 total        electrons   202.02839738483451     
 total        electrons   202.02839738483451     
 total        electrons   202.02839738483451     
 total        electrons   202.02839738483451     
 total        electrons   202.02839738483451     
 total        electrons   202.02839738483451     
 total        electrons   202.02839738483451     
 total        electrons   202.02839738483451     
 total        electrons   202.02839738483451     
 total        electrons   202.02839738483451     
 total        electrons   202.02839738483451     
 total        electrons   202.02839738483451     
 total        electrons   202.02839738483451     
 total        electrons   202.02839738483451     
 total        electrons   202.02839738483451     
 total        electrons   202.02839738483451     
 total        electrons   202.02839738483451     
 total        electrons   202.02839738483451     
 total        electrons   202.02839738483451     
 total        electrons   202.02839738483451     
 total        electrons   202.02839738483451     
 total        electrons   202.02839738483451     
 total        electrons   202.02839738483451     
 total        electrons   202.02839738483451     
 total        electrons   202.02839738483451     
 total        electrons   202.02839738483451     
 total        electrons   202.02839738483451     
 total        electrons   202.02839738483451     
 total        electrons   202.02839738483451     
 total        electrons   202.02839738483451     
 total        electrons   202.02839738483451     
 total        electrons   202.02839738483451     
 total        electrons   202.02839738483451     
 total        electrons   202.02839738483451     
 total        electrons   202.02839738483451     
 total        electrons   202.02839738483451     
 total        electrons   202.02839738483451     
 total        electrons   202.02839738483451     
 total        electrons   202.02839738483451     
 total        electrons   202.02839738483451     
 total        electrons   202.02839738483451     
 total        electrons   202.02839738483451     
 total        electrons   202.02839738483451     
 augmentation electrons   714.64954301478951     
 soft         electrons   0.0000000000000000     
 total        electrons   714.64954301478951     
 augmentation electrons   714.64954301478951     
 soft         electrons   0.0000000000000000     
 total        electrons   714.64954301478951     
 augmentation electrons   714.64954301478951     
 soft         electrons   0.0000000000000000     
 total        electrons   714.64954301478951     
 augmentation electrons   714.64954301478951     
 soft         electrons   0.0000000000000000     
 total        electrons   714.64954301478951     
 augmentation electrons   714.64954301478951     
 soft         electrons   0.0000000000000000     
 total        electrons   714.64954301478951     
 augmentation electrons   714.64954301478951     
 soft         electrons   0.0000000000000000     
 total        electrons   714.64954301478951     
 augmentation electrons   714.64954301478951     
 soft         electrons   0.0000000000000000     
 total        electrons   714.64954301478951     
 augmentation electrons   714.64954301478951     
 soft         electrons   0.0000000000000000     
 total        electrons   714.64954301478951     
 augmentation electrons   714.64954301478951     
 soft         electrons   0.0000000000000000     
 total        electrons   714.64954301478951     
 augmentation electrons   714.64954301478951     
 soft         electrons   0.0000000000000000     
 total        electrons   714.64954301478951     
 augmentation electrons   714.64954301478951     
 soft         electrons   0.0000000000000000     
 total        electrons   714.64954301478951     
 augmentation electrons   714.64954301478951     
 soft         electrons   0.0000000000000000     
 total        electrons   714.64954301478951     
 augmentation electrons   714.64954301478951     
 soft         electrons   0.0000000000000000     
 total        electrons   714.64954301478951     
 augmentation electrons   714.64954301478951     
 soft         electrons   0.0000000000000000     
 total        electrons   714.64954301478951     
 augmentation electrons   714.64954301478951     
 soft         electrons   0.0000000000000000     
 total        electrons   714.64954301478951     
 augmentation electrons   714.64954301478951     
 soft         electrons   0.0000000000000000     
 total        electrons   714.64954301478951     
 augmentation electrons   714.64954301478951     
 soft         electrons   0.0000000000000000     
 total        electrons   714.64954301478951     
 augmentation electrons   714.64954301478951     
 soft         electrons   0.0000000000000000     
 total        electrons   714.64954301478951     
 augmentation electrons   714.64954301478951     
 soft         electrons   0.0000000000000000     
 total        electrons   714.64954301478951     
 augmentation electrons   714.64954301478951     
 soft         electrons   0.0000000000000000     
 total        electrons   714.64954301478951     
 augmentation electrons   714.64954301478951     
 soft         electrons   0.0000000000000000     
 total        electrons   714.64954301478951     
 augmentation electrons   714.64954301478951     
 soft         electrons   0.0000000000000000     
 total        electrons   714.64954301478951     
 augmentation electrons   714.64954301478951     
 soft         electrons   0.0000000000000000     
 total        electrons   714.64954301478951     
 augmentation electrons   714.64954301478951     
 soft         electrons   0.0000000000000000     
 total        electrons   714.64954301478951     
 augmentation electrons   714.64954301478951     
 soft         electrons   0.0000000000000000     
 total        electrons   714.64954301478951     
 augmentation electrons   714.64954301478951     
 soft         electrons   0.0000000000000000     
 total        electrons   714.64954301478951     
 augmentation electrons   714.64954301478951     
 soft         electrons   0.0000000000000000     
 total        electrons   714.64954301478951     
 augmentation electrons   714.64954301478951     
 soft         electrons   0.0000000000000000     
 total        electrons   714.64954301478951     
 augmentation electrons   714.64954301478951     
 soft         electrons   0.0000000000000000     
 total        electrons   714.64954301478951     
 augmentation electrons   714.64954301478951     
 soft         electrons   0.0000000000000000     
 total        electrons   714.64954301478951     
 augmentation electrons   714.64954301478951     
 soft         electrons   0.0000000000000000     
 total        electrons   714.64954301478951     
 augmentation electrons   714.64954301478951     
 soft         electrons   0.0000000000000000     
 total        electrons   714.64954301478951     
 augmentation electrons   714.64954301478951     
 soft         electrons   0.0000000000000000     
 total        electrons   714.64954301478951     
 augmentation electrons   714.64954301478951     
 soft         electrons   0.0000000000000000     
 total        electrons   714.64954301478951     
 augmentation electrons   714.64954301478951     
 soft         electrons   0.0000000000000000     
 total        electrons   714.64954301478951     
 augmentation electrons   714.64954301478951     
 soft         electrons   0.0000000000000000     
 total        electrons   714.64954301478951     
 augmentation electrons   714.64954301478951     
 soft         electrons   0.0000000000000000     
 total        electrons   714.64954301478951     
 augmentation electrons   714.64954301478951     
 soft         electrons   0.0000000000000000     
 total        electrons   714.64954301478951     
 augmentation electrons   714.64954301478951     
 soft         electrons   0.0000000000000000     
 total        electrons   714.64954301478951     
 augmentation electrons   714.64954301478951     
 soft         electrons   0.0000000000000000     
 total        electrons   714.64954301478951     
 augmentation electrons   714.64954301478951     
 soft         electrons   0.0000000000000000     
 total        electrons   714.64954301478951     
 augmentation electrons   714.64954301478951     
 soft         electrons   0.0000000000000000     
 total        electrons   714.64954301478951     
 augmentation electrons   714.64954301478951     
 soft         electrons   0.0000000000000000     
 total        electrons   714.64954301478951     
 augmentation electrons   714.64954301478951     
 soft         electrons   0.0000000000000000     
 total        electrons   714.64954301478951     
 augmentation electrons   714.64954301478951     
 soft         electrons   0.0000000000000000     
 total        electrons   714.64954301478951     
 augmentation electrons   714.64954301478951     
 soft         electrons   0.0000000000000000     
 total        electrons   714.64954301478951     
 augmentation electrons   714.64954301478951     
 soft         electrons   0.0000000000000000     
 total        electrons   714.64954301478951     
 augmentation electrons   714.64954301478951     
 soft         electrons   0.0000000000000000     
 total        electrons   714.64954301478951     
 augmentation electrons   714.64954301478951     
 soft         electrons   0.0000000000000000     
 total        electrons   714.64954301478951     
 augmentation electrons   714.64954301478951     
 soft         electrons   0.0000000000000000     
 total        electrons   714.64954301478951     
 augmentation electrons   714.64954301478951     
 soft         electrons   0.0000000000000000     
 total        electrons   714.64954301478951     
 augmentation electrons   714.64954301478951     
 soft         electrons   0.0000000000000000     
 total        electrons   714.64954301478951     
 augmentation electrons   714.64954301478951     
 soft         electrons   0.0000000000000000     
 total        electrons   714.64954301478951     
 augmentation electrons   714.64954301478951     
 soft         electrons   0.0000000000000000     
 total        electrons   714.64954301478951     
 entering main loop
       N       E                     dE             d eps       ncg     rms          rms(c)
DAV:   1     0.179338977422E+04    0.17934E+04   -0.75354E+04 10824   0.134E+03
DAV:   2    -0.136164912701E+03   -0.19296E+04   -0.17699E+04 11436   0.346E+02
DAV:   3    -0.463415423397E+03   -0.32725E+03   -0.31276E+03 15600   0.147E+02
DAV:   4    -0.486339301768E+03   -0.22924E+02   -0.22359E+02 17196   0.427E+01
DAV:   5    -0.487229340337E+03   -0.89004E+00   -0.87535E+00 18192   0.813E+00    0.114E+02
RMM:   6    -0.475884340502E+03    0.11345E+02   -0.83527E+02 17078   0.891E+01    0.655E+01
RMM:   7    -0.535398836225E+03   -0.59514E+02   -0.37469E+02 14207   0.720E+01    0.445E+01
RMM:   8    -0.463262657830E+03    0.72136E+02   -0.90900E+01 16121   0.237E+01    0.360E+01
RMM:   9    -0.447307278940E+03    0.15955E+02   -0.34189E+01 14011   0.203E+01    0.319E+01
RMM:  10    -0.420187257670E+03    0.27120E+02   -0.16873E+01 13928   0.137E+01    0.196E+01
RMM:  11    -0.415712922674E+03    0.44743E+01   -0.13811E+01 16103   0.848E+00    0.156E+01
RMM:  12    -0.414333093120E+03    0.13798E+01   -0.21359E+00 13371   0.551E+00    0.138E+01
RMM:  13    -0.414349188313E+03   -0.16095E-01   -0.11122E+00 17268   0.132E+00    0.131E+01
RMM:  14    -0.414348552560E+03    0.63575E-03   -0.87232E-02 17185   0.342E-01    0.131E+01
RMM:  15    -0.414722921465E+03   -0.37437E+00   -0.37917E-01 14140   0.202E+00    0.122E+01
RMM:  16    -0.413159566096E+03    0.15634E+01   -0.22251E+00 12601   0.556E+00    0.544E+00
RMM:  17    -0.412871731676E+03    0.28783E+00   -0.15038E+00 15009   0.313E+00    0.319E+00
RMM:  18    -0.412816952621E+03    0.54779E-01   -0.21288E-01 16191   0.109E+00    0.242E+00
RMM:  19    -0.412830041594E+03   -0.13089E-01   -0.76951E-02 15754   0.618E-01    0.249E+00
RMM:  20    -0.412827577158E+03    0.24644E-02   -0.90358E-02 12754   0.111E+00    0.242E+00
RMM:  21    -0.412786079703E+03    0.41497E-01   -0.59531E-02 15256   0.607E-01    0.161E+00
RMM:  22    -0.412753989396E+03    0.32090E-01   -0.90975E-02 14814   0.882E-01    0.706E-01
RMM:  23    -0.412753429929E+03    0.55947E-03   -0.33835E-02 17014   0.276E-01    0.612E-01
RMM:  24    -0.412749705444E+03    0.37245E-02   -0.71296E-03 15763   0.225E-01    0.454E-01
RMM:  25    -0.412747374088E+03    0.23314E-02   -0.74840E-03 15810   0.218E-01    0.238E-01
RMM:  26    -0.412747733343E+03   -0.35925E-03   -0.16312E-03 16866   0.741E-02    0.197E-01
RMM:  27    -0.412748174623E+03   -0.44128E-03   -0.32794E-03 16093   0.137E-01    0.968E-02
RMM:  28    -0.412749561816E+03   -0.13872E-02   -0.31905E-03 16358   0.107E-01    0.139E-01
RMM:  29    -0.412749942123E+03   -0.38031E-03   -0.35787E-04 16368   0.489E-02    0.130E-01
RMM:  30    -0.412750567953E+03   -0.62583E-03   -0.10060E-03 16056   0.729E-02    0.965E-02
RMM:  31    -0.412750623007E+03   -0.55055E-04   -0.15770E-04 15998   0.292E-02    0.594E-02
RMM:  32    -0.412750614592E+03    0.84150E-05   -0.31878E-05 15234   0.111E-02    0.463E-02
RMM:  33    -0.412750715560E+03   -0.10097E-03   -0.93588E-05 16371   0.207E-02    0.195E-02
RMM:  34    -0.412750766490E+03   -0.50930E-04   -0.22178E-05 14710   0.102E-02    0.156E-02
RMM:  35    -0.412750769327E+03   -0.28370E-05   -0.55677E-06 11081   0.742E-03    0.929E-03
RMM:  36    -0.412750771412E+03   -0.20848E-05   -0.21510E-06  8464   0.473E-03    0.881E-03
RMM:  37    -0.412750778051E+03   -0.66396E-05   -0.37802E-06  9770   0.664E-03    0.359E-03
RMM:  38    -0.412750778855E+03   -0.80369E-06   -0.20413E-06  8681   0.376E-03
   1 F= -.41275078E+03 E0= -.41276177E+03  d E =0.329706E-01
 augmentation electrons   18.318276483987184     
 soft         electrons   183.75698332085472     
 total        electrons   202.07525980484189     
 augmentation electrons   18.318276483987184     
 soft         electrons   183.75698332085472     
 total        electrons   202.07525980484189     
 augmentation electrons   18.318276483987184     
 soft         electrons   183.75698332085472     
 total        electrons   202.07525980484189     
 augmentation electrons   18.318276483987184     
 soft         electrons   183.75698332085472     
 total        electrons   202.07525980484189     
 augmentation electrons   18.318276483987184     
 soft         electrons   183.75698332085472     
 total        electrons   202.07525980484189     
 augmentation electrons   18.318276483987184     
 soft         electrons   183.75698332085472     
 total        electrons   202.07525980484189     
 augmentation electrons   18.318276483987184     
 soft         electrons   183.75698332085472     
 total        electrons   202.07525980484189     
 augmentation electrons   18.318276483987184     
 soft         electrons   183.75698332085472     
 total        electrons   202.07525980484189     
 augmentation electrons   18.318276483987184     
 soft         electrons   183.75698332085472     
 total        electrons   202.07525980484189     
 augmentation electrons   18.318276483987184     
 soft         electrons   183.75698332085472     
 total        electrons   202.07525980484189     
 augmentation electrons   18.318276483987184     
 soft         electrons   183.75698332085472     
 total        electrons   202.07525980484189     
 augmentation electrons   18.318276483987184     
 soft         electrons   183.75698332085472     
 total        electrons   202.07525980484189     
 augmentation electrons   18.318276483987184     
 soft         electrons   183.75698332085472     
 total        electrons   202.07525980484189     
 augmentation electrons   18.318276483987184     
 soft         electrons   183.75698332085472     
 total        electrons   202.07525980484189     
 augmentation electrons   18.318276483987184     
 soft         electrons   183.75698332085472     
 total        electrons   202.07525980484189     
 augmentation electrons   18.318276483987184     
 soft         electrons   183.75698332085472     
 total        electrons   202.07525980484189     
 augmentation electrons   18.318276483987184     
 soft         electrons   183.75698332085472     
 total        electrons   202.07525980484189     
 augmentation electrons   18.318276483987184     
 soft         electrons   183.75698332085472     
 total        electrons   202.07525980484189     
 augmentation electrons   18.318276483987184     
 soft         electrons   183.75698332085472     
 total        electrons   202.07525980484189     
 augmentation electrons   18.318276483987184     
 soft         electrons   183.75698332085472     
 total        electrons   202.07525980484189     
 augmentation electrons   18.318276483987184     
 soft         electrons   183.75698332085472     
 total        electrons   202.07525980484189     
 augmentation electrons   18.318276483987184     
 soft         electrons   183.75698332085472     
 total        electrons   202.07525980484189     
 augmentation electrons   18.318276483987184     
 soft         electrons   183.75698332085472     
 total        electrons   202.07525980484189     
 augmentation electrons   18.318276483987184     
 soft         electrons   183.75698332085472     
 total        electrons   202.07525980484189     
 augmentation electrons   18.318276483987184     
 soft         electrons   183.75698332085472     
 total        electrons   202.07525980484189     
 augmentation electrons   18.318276483987184     
 soft         electrons   183.75698332085472     
 total        electrons   202.07525980484189     
 augmentation electrons   18.318276483987184     
 soft         electrons   183.75698332085472     
 total        electrons   202.07525980484189     
 augmentation electrons   18.318276483987184     
 soft         electrons   183.75698332085472     
 total        electrons   202.07525980484189     
 augmentation electrons   18.318276483987184     
 soft         electrons   183.75698332085472     
 total        electrons   202.07525980484189     
 augmentation electrons   18.318276483987184     
 soft         electrons   183.75698332085472     
 total        electrons   202.07525980484189     
 augmentation electrons   18.318276483987184     
 soft         electrons   183.75698332085472     
 total        electrons   202.07525980484189     
 augmentation electrons   18.318276483987184     
 soft         electrons   183.75698332085472     
 total        electrons   202.07525980484189     
 augmentation electrons   18.318276483987184     
 soft         electrons   183.75698332085472     
 total        electrons   202.07525980484189     
 augmentation electrons   18.318276483987184     
 soft         electrons   183.75698332085472     
 total        electrons   202.07525980484189     
 augmentation electrons   18.318276483987184     
 soft         electrons   183.75698332085472     
 total        electrons   202.07525980484189     
 augmentation electrons   18.318276483987184     
 soft         electrons   183.75698332085472     
 total        electrons   202.07525980484189     
 augmentation electrons   18.318276483987184     
 soft         electrons   183.75698332085472     
 total        electrons   202.07525980484189     
 augmentation electrons   18.318276483987184     
 soft         electrons   183.75698332085472     
 total        electrons   202.07525980484189     
 augmentation electrons   18.318276483987184     
 soft         electrons   183.75698332085472     
 total        electrons   202.07525980484189     
 augmentation electrons   18.318276483987184     
 soft         electrons   183.75698332085472     
 total        electrons   202.07525980484189     
 augmentation electrons   18.318276483987184     
 soft         electrons   183.75698332085472     
 total        electrons   202.07525980484189     
 augmentation electrons   18.318276483987184     
 soft         electrons   183.75698332085472     
 total        electrons   202.07525980484189     
 augmentation electrons   18.318276483987184     
 soft         electrons   183.75698332085472     
 total        electrons   202.07525980484189     
 augmentation electrons   18.318276483987184     
 soft         electrons   183.75698332085472     
 total        electrons   202.07525980484189     
 augmentation electrons   18.318276483987184     
 soft         electrons   183.75698332085472     
 total        electrons   202.07525980484189     
 augmentation electrons   18.318276483987184     
 soft         electrons   183.75698332085472     
 total        electrons   202.07525980484189     
 augmentation electrons   18.318276483987184     
 soft         electrons   183.75698332085472     
 total        electrons   202.07525980484189     
 augmentation electrons   18.318276483987184     
 soft         electrons   183.75698332085472     
 total        electrons   202.07525980484189     
 augmentation electrons   18.318276483987184     
 soft         electrons   183.75698332085472     
 total        electrons   202.07525980484189     
 augmentation electrons   18.318276483987184     
 soft         electrons   183.75698332085472     
 augmentation electrons   18.318276483987184     
 soft         electrons   183.75698332085472     
 total        electrons   202.07525980484189     
 augmentation electrons   18.318276483987184     
 soft         electrons   183.75698332085472     
 total        electrons   202.07525980484189     
 augmentation electrons   18.318276483987184     
 soft         electrons   183.75698332085472     
 total        electrons   202.07525980484189     
 augmentation electrons   18.318276483987184     
 soft         electrons   183.75698332085472     
 total        electrons   202.07525980484189     
 total        electrons   202.07525980484189     
Note: The following floating-point exceptions are signalling: IEEE_OVERFLOW_FLAG
Note: The following floating-point exceptions are signalling: IEEE_OVERFLOW_FLAG
Note: The following floating-point exceptions are signalling: IEEE_OVERFLOW_FLAG
Note: The following floating-point exceptions are signalling: IEEE_OVERFLOW_FLAG
Note: The following floating-point exceptions are signalling: IEEE_OVERFLOW_FLAG
Note: The following floating-point exceptions are signalling: IEEE_OVERFLOW_FLAG
Note: The following floating-point exceptions are signalling: IEEE_OVERFLOW_FLAG
Note: The following floating-point exceptions are signalling: IEEE_OVERFLOW_FLAG
Note: The following floating-point exceptions are signalling: IEEE_OVERFLOW_FLAG
Note: The following floating-point exceptions are signalling: IEEE_OVERFLOW_FLAG
Note: The following floating-point exceptions are signalling: IEEE_OVERFLOW_FLAG
Note: The following floating-point exceptions are signalling: IEEE_OVERFLOW_FLAG
Note: The following floating-point exceptions are signalling: IEEE_OVERFLOW_FLAG
Note: The following floating-point exceptions are signalling: IEEE_OVERFLOW_FLAG
Note: The following floating-point exceptions are signalling: IEEE_OVERFLOW_FLAG
Note: The following floating-point exceptions are signalling: IEEE_OVERFLOW_FLAG
Note: The following floating-point exceptions are signalling: IEEE_OVERFLOW_FLAG
Note: The following floating-point exceptions are signalling: IEEE_OVERFLOW_FLAG
Note: The following floating-point exceptions are signalling: IEEE_OVERFLOW_FLAG
Note: The following floating-point exceptions are signalling: IEEE_OVERFLOW_FLAG
Note: The following floating-point exceptions are signalling: IEEE_OVERFLOW_FLAG
Note: The following floating-point exceptions are signalling: IEEE_OVERFLOW_FLAG
Note: The following floating-point exceptions are signalling: IEEE_OVERFLOW_FLAG
Note: The following floating-point exceptions are signalling: IEEE_OVERFLOW_FLAG
Note: The following floating-point exceptions are signalling: IEEE_OVERFLOW_FLAG
Note: The following floating-point exceptions are signalling: IEEE_OVERFLOW_FLAG
Note: The following floating-point exceptions are signalling: IEEE_OVERFLOW_FLAG
Note: The following floating-point exceptions are signalling: IEEE_OVERFLOW_FLAG
Note: The following floating-point exceptions are signalling: IEEE_OVERFLOW_FLAG
Note: The following floating-point exceptions are signalling: IEEE_OVERFLOW_FLAG
Note: The following floating-point exceptions are signalling: IEEE_OVERFLOW_FLAG
Note: The following floating-point exceptions are signalling: IEEE_OVERFLOW_FLAG
Note: The following floating-point exceptions are signalling: IEEE_OVERFLOW_FLAG
Note: The following floating-point exceptions are signalling: IEEE_OVERFLOW_FLAG
Note: The following floating-point exceptions are signalling: IEEE_OVERFLOW_FLAG
Note: The following floating-point exceptions are signalling: IEEE_OVERFLOW_FLAG
Note: The following floating-point exceptions are signalling: IEEE_OVERFLOW_FLAG
Note: The following floating-point exceptions are signalling: IEEE_OVERFLOW_FLAG
Note: The following floating-point exceptions are signalling: IEEE_OVERFLOW_FLAG
Note: The following floating-point exceptions are signalling: IEEE_OVERFLOW_FLAG
Note: The following floating-point exceptions are signalling: IEEE_OVERFLOW_FLAG
Note: The following floating-point exceptions are signalling: IEEE_OVERFLOW_FLAG
Note: The following floating-point exceptions are signalling: IEEE_OVERFLOW_FLAG
Note: The following floating-point exceptions are signalling: IEEE_OVERFLOW_FLAG
Note: The following floating-point exceptions are signalling: IEEE_OVERFLOW_FLAG
Note: The following floating-point exceptions are signalling: IEEE_OVERFLOW_FLAG
Note: The following floating-point exceptions are signalling: IEEE_OVERFLOW_FLAG
Note: The following floating-point exceptions are signalling: IEEE_OVERFLOW_FLAG
Note: The following floating-point exceptions are signalling: IEEE_OVERFLOW_FLAG
Note: The following floating-point exceptions are signalling: IEEE_OVERFLOW_FLAG
Note: The following floating-point exceptions are signalling: IEEE_OVERFLOW_FLAG
Note: The following floating-point exceptions are signalling: IEEE_OVERFLOW_FLAG
Note: The following floating-point exceptions are signalling: IEEE_OVERFLOW_FLAG
Note: The following floating-point exceptions are signalling: IEEE_OVERFLOW_FLAG
