   55   55    1    1
  0.1292508E+02  0.6078000E-09  0.6078000E-09  0.2222000E-08  0.5000000E-15
   1.0000000000000000E-004
  CAR 
 Name                                    
    199     41    132

  0.3742002E-15  0.3742002E-15  0.1262379E-14  0.1234568E-01
    1      -11.312040   1.000000
    2      -10.720429   1.000000
    3       -9.903137   1.000000
    4       -8.617167   1.000000
    5       -8.405054   1.000000
    6       -8.328225   1.000000
    7       -7.946140   1.000000
    8       -7.822957   1.000000
    9       -7.547938   1.000000
   10       -7.535007   1.000000
   11       -7.515830   1.000000
   12       -7.438606   1.000000
   13       -7.422165   1.000000
   14       -7.375878   1.000000
   15       -7.178212   1.000000
   16       -7.170438   1.000000
   17       -7.090710   1.000000
   18       -6.869006   1.000000
   19       -6.744057   1.000000
   20       -6.596941   1.000000
   21       -6.289786   1.000000
   22       -6.003269   1.000000
   23       -5.831240   1.000000
   24       -5.703391   1.000000
   25       -5.691069   1.000000
   26       -5.670237   1.000000
   27       -5.579750   1.000000
   28       -5.505282   1.000000
   29       -5.155577   1.000000
   30       -5.039335   1.000000
   31       -4.513034   1.000000
   32       -4.423933   1.000000
   33       -4.295697   1.000000
   34       -4.232677   1.000000
   35       -4.149155   1.000000
   36       -4.072823   1.000000
   37       -3.761199   1.000000
   38       -3.268282   1.000000
   39       -2.987001   1.000000
   40       -2.831094   1.000000
   41       -2.653390   1.000000
   42       -2.516993   1.000000
   43       -2.506897   1.000000
   44       -2.297186   1.000000
   45       -2.241563   1.000000
   46       -2.196543   1.000000
   47       -2.115470   1.000000
   48       -1.990879   1.000000
   49       -1.787154   1.000000
   50       -1.783721   1.000000
   51       -1.674632   1.000000
   52       -1.650471   1.000000
   53       -1.641853   1.000000
   54       -1.515273   1.000000
   55       -1.413976   1.000000
   56       -1.412532   1.000000
   57       -1.325971   1.000000
   58       -1.215013   1.000000
   59       -1.199327   1.000000
   60       -1.146234   1.000000
   61       -1.134696   1.000000
   62       -0.960811   1.000000
   63       -0.941943   1.000000
   64       -0.838425   1.000000
   65       -0.824280   1.000000
   66       -0.762455   1.000000
   67       -0.596499   1.000000
   68       -0.583623   1.000000
   69       -0.520037   1.000000
   70       -0.495013   1.000000
   71       -0.417270   1.000000
   72       -0.361966   1.000000
   73       -0.080669   1.000000
   74       -0.026779   1.000000
   75        0.087288   1.000000
   76        0.136649   1.000000
   77        0.172715   1.000000
   78        0.243926   1.000000
   79        0.417101   1.000000
   80        0.511527   1.000000
   81        0.636517   1.000000
   82        0.964495   1.000000
   83        1.118731   1.000000
   84        1.280634   1.000000
   85        1.419686   1.000000
   86        1.440968   1.000000
   87        1.607974   1.000000
   88        1.639127   1.000000
   89        1.792673   1.000000
   90        1.806083   1.000000
   91        1.819821   1.000000
   92        1.854451   1.000000
   93        1.855049   1.000000
   94        1.946770   1.000000
   95        2.026686   1.000001
   96        2.095171   1.000011
   97        2.345090   1.005448
   98        2.423136   1.017549
   99        2.860413   0.150770
  100        2.979833  -0.030307
  101        2.998034  -0.034542
  102        3.210407  -0.003783
  103        3.404410  -0.000032
  104        3.448356  -0.000008
  105        3.450029  -0.000008
  106        3.497516  -0.000002
  107        3.543827  -0.000000
  108        3.726979  -0.000000
  109        3.762173  -0.000000
  110        3.785660  -0.000000
  111        3.796511  -0.000000
  112        3.857685  -0.000000
  113        3.924285  -0.000000
  114        3.975707  -0.000000
  115        3.999612  -0.000000
  116        4.068309  -0.000000
  117        4.077672  -0.000000
  118        4.173676  -0.000000
  119        4.220332  -0.000000
  120        4.286126  -0.000000
  121        4.345095  -0.000000
  122        4.383332  -0.000000
  123        4.508696  -0.000000
  124        4.535368  -0.000000
  125        4.591349  -0.000000
  126        4.976422  -0.000000
  127        5.193845  -0.000000
  128        5.780490  -0.000000
  129        6.191772  -0.000000
  130        6.318041  -0.000000
  131        6.612730  -0.000000
  132        6.726994  -0.000000

  0.1111111E+00  0.3756941E-15  0.1262379E-14  0.2469136E-01
    1      -11.254787   1.000000
    2      -10.668200   1.000000
    3       -9.862607   1.000000
    4       -8.581043   1.000000
    5       -8.380025   1.000000
    6       -8.345902   1.000000
    7       -8.096100   1.000000
    8       -8.088101   1.000000
    9       -7.831943   1.000000
   10       -7.679721   1.000000
   11       -7.651387   1.000000
   12       -7.638499   1.000000
   13       -7.587933   1.000000
   14       -7.573077   1.000000
   15       -6.950228   1.000000
   16       -6.889108   1.000000
   17       -6.698710   1.000000
   18       -6.665949   1.000000
   19       -6.550680   1.000000
   20       -6.441862   1.000000
   21       -6.279874   1.000000
   22       -5.985232   1.000000
   23       -5.932570   1.000000
   24       -5.732429   1.000000
   25       -5.685554   1.000000
   26       -5.570900   1.000000
   27       -5.534212   1.000000
   28       -5.442468   1.000000
   29       -5.182518   1.000000
   30       -4.974615   1.000000
   31       -4.496765   1.000000
   32       -4.265615   1.000000
   33       -4.242180   1.000000
   34       -4.064971   1.000000
   35       -4.024983   1.000000
   36       -3.894442   1.000000
   37       -3.676819   1.000000
   38       -3.254081   1.000000
   39       -3.005272   1.000000
   40       -2.865282   1.000000
   41       -2.692798   1.000000
   42       -2.567142   1.000000
   43       -2.498771   1.000000
   44       -2.429786   1.000000
   45       -2.277730   1.000000
   46       -2.258415   1.000000
   47       -2.186207   1.000000
   48       -2.078806   1.000000
   49       -1.876739   1.000000
   50       -1.773691   1.000000
   51       -1.748477   1.000000
   52       -1.677882   1.000000
   53       -1.605345   1.000000
   54       -1.506204   1.000000
   55       -1.427618   1.000000
   56       -1.395231   1.000000
   57       -1.340668   1.000000
   58       -1.232942   1.000000
   59       -1.176217   1.000000
   60       -1.165384   1.000000
   61       -1.123186   1.000000
   62       -1.050752   1.000000
   63       -0.968662   1.000000
   64       -0.877622   1.000000
   65       -0.868628   1.000000
   66       -0.804885   1.000000
   67       -0.723705   1.000000
   68       -0.588512   1.000000
   69       -0.508334   1.000000
   70       -0.472589   1.000000
   71       -0.418894   1.000000
   72       -0.338296   1.000000
   73       -0.239181   1.000000
   74       -0.034489   1.000000
   75        0.003171   1.000000
   76        0.072366   1.000000
   77        0.141672   1.000000
   78        0.309708   1.000000
   79        0.373888   1.000000
   80        0.458167   1.000000
   81        0.596210   1.000000
   82        0.744968   1.000000
   83        1.080246   1.000000
   84        1.217319   1.000000
   85        1.293537   1.000000
   86        1.364177   1.000000
   87        1.449983   1.000000
   88        1.615068   1.000000
   89        1.683317   1.000000
   90        1.748720   1.000000
   91        1.775427   1.000000
   92        1.805472   1.000000
   93        1.870314   1.000000
   94        1.973507   1.000000
   95        2.084424   1.000008
   96        2.125929   1.000028
   97        2.579924   1.017617
   98        2.674901   0.849890
   99        2.862284   0.145336
  100        2.971003  -0.026725
  101        3.018544  -0.035332
  102        3.096697  -0.021017
  103        3.247872  -0.001785
  104        3.310235  -0.000426
  105        3.495487  -0.000002
  106        3.660873  -0.000000
  107        3.665076  -0.000000
  108        3.742067  -0.000000
  109        3.760227  -0.000000
  110        3.769295  -0.000000
  111        3.801488  -0.000000
  112        3.860290  -0.000000
  113        3.892753  -0.000000
  114        3.934643  -0.000000
  115        3.989323  -0.000000
  116        3.994989  -0.000000
  117        4.053171  -0.000000
  118        4.068065  -0.000000
  119        4.142727  -0.000000
  120        4.210238  -0.000000
  121        4.222910  -0.000000
  122        4.282555  -0.000000
  123        4.338583  -0.000000
  124        4.438260  -0.000000
  125        4.513696  -0.000000
  126        4.913119  -0.000000
  127        5.187078  -0.000000
  128        5.748031  -0.000000
  129        5.925580  -0.000000
  130        6.453487  -0.000000
  131        6.681280  -0.000000
  132        6.752898  -0.000000

  0.2222222E+00  0.3503827E-15  0.1262379E-14  0.2469136E-01
    1      -11.084997   1.000000
    2      -10.513865   1.000000
    3       -9.744202   1.000000
    4       -8.759492   1.000000
    5       -8.521783   1.000000
    6       -8.474846   1.000000
    7       -8.453968   1.000000
    8       -8.261051   1.000000
    9       -7.918645   1.000000
   10       -7.911418   1.000000
   11       -7.853799   1.000000
   12       -7.839017   1.000000
   13       -7.772484   1.000000
   14       -7.731121   1.000000
   15       -6.802004   1.000000
   16       -6.730794   1.000000
   17       -6.492532   1.000000
   18       -6.462539   1.000000
   19       -6.387856   1.000000
   20       -6.298866   1.000000
   21       -6.033533   1.000000
   22       -5.882533   1.000000
   23       -5.684946   1.000000
   24       -5.635374   1.000000
   25       -5.574935   1.000000
   26       -5.428766   1.000000
   27       -5.383676   1.000000
   28       -5.276985   1.000000
   29       -4.956025   1.000000
   30       -4.773425   1.000000
   31       -4.355911   1.000000
   32       -4.079122   1.000000
   33       -4.033302   1.000000
   34       -3.866150   1.000000
   35       -3.626163   1.000000
   36       -3.569514   1.000000
   37       -3.339050   1.000000
   38       -3.219809   1.000000
   39       -3.079619   1.000000
   40       -3.036708   1.000000
   41       -2.933179   1.000000
   42       -2.879373   1.000000
   43       -2.743900   1.000000
   44       -2.479687   1.000000
   45       -2.443008   1.000000
   46       -2.273250   1.000000
   47       -2.246624   1.000000
   48       -2.082496   1.000000
   49       -1.943010   1.000000
   50       -1.862833   1.000000
   51       -1.757508   1.000000
   52       -1.713012   1.000000
   53       -1.684339   1.000000
   54       -1.638308   1.000000
   55       -1.555460   1.000000
   56       -1.512235   1.000000
   57       -1.353136   1.000000
   58       -1.276169   1.000000
   59       -1.242414   1.000000
   60       -1.198000   1.000000
   61       -1.175891   1.000000
   62       -1.106406   1.000000
   63       -1.056215   1.000000
   64       -1.024871   1.000000
   65       -0.959772   1.000000
   66       -0.848323   1.000000
   67       -0.786958   1.000000
   68       -0.735488   1.000000
   69       -0.631884   1.000000
   70       -0.599981   1.000000
   71       -0.495755   1.000000
   72       -0.406906   1.000000
   73       -0.324910   1.000000
   74       -0.261401   1.000000
   75       -0.142086   1.000000
   76       -0.048392   1.000000
   77        0.186586   1.000000
   78        0.259187   1.000000
   79        0.296139   1.000000
   80        0.486547   1.000000
   81        0.593906   1.000000
   82        0.669153   1.000000
   83        0.876632   1.000000
   84        0.935588   1.000000
   85        1.126099   1.000000
   86        1.217123   1.000000
   87        1.299143   1.000000
   88        1.548252   1.000000
   89        1.567348   1.000000
   90        1.665566   1.000000
   91        1.726552   1.000000
   92        1.740694   1.000000
   93        1.805431   1.000000
   94        1.943262   1.000000
   95        2.081976   1.000007
   96        2.233847   1.000525
   97        2.533302   1.035004
   98        2.654281   0.904869
   99        2.855110   0.166622
  100        3.024068  -0.034999
  101        3.086684  -0.023317
  102        3.253264  -0.001591
  103        3.350062  -0.000152
  104        3.398139  -0.000039
  105        3.504653  -0.000001
  106        3.522305  -0.000001
  107        3.583295  -0.000000
  108        3.616356  -0.000000
  109        3.641155  -0.000000
  110        3.700893  -0.000000
  111        3.760031  -0.000000
  112        3.849432  -0.000000
  113        3.873775  -0.000000
  114        3.903441  -0.000000
  115        3.939546  -0.000000
  116        3.992213  -0.000000
  117        4.039243  -0.000000
  118        4.067593  -0.000000
  119        4.098137  -0.000000
  120        4.150209  -0.000000
  121        4.186339  -0.000000
  122        4.264800  -0.000000
  123        4.294259  -0.000000
  124        4.349668  -0.000000
  125        4.386216  -0.000000
  126        4.597119  -0.000000
  127        4.668246  -0.000000
  128        4.839997  -0.000000
  129        4.896688  -0.000000
  130        6.167846  -0.000000
  131        6.410091  -0.000000
  132        6.724503  -0.000000

  0.3333333E+00  0.3779629E-15  0.1262379E-14  0.2469136E-01
    1      -10.809264   1.000000
    2      -10.265070   1.000000
    3       -9.558378   1.000000
    4       -9.372511   1.000000
    5       -9.009335   1.000000
    6       -8.694296   1.000000
    7       -8.317470   1.000000
    8       -8.105301   1.000000
    9       -8.066516   1.000000
   10       -8.028310   1.000000
   11       -8.012151   1.000000
   12       -7.940542   1.000000
   13       -7.867740   1.000000
   14       -7.774671   1.000000
   15       -7.105537   1.000000
   16       -7.096913   1.000000
   17       -6.358580   1.000000
   18       -6.214371   1.000000
   19       -6.197109   1.000000
   20       -5.972890   1.000000
   21       -5.779970   1.000000
   22       -5.730538   1.000000
   23       -5.561417   1.000000
   24       -5.522987   1.000000
   25       -5.405249   1.000000
   26       -5.320215   1.000000
   27       -4.852634   1.000000
   28       -4.737336   1.000000
   29       -4.479711   1.000000
   30       -4.370361   1.000000
   31       -4.079375   1.000000
   32       -3.831055   1.000000
   33       -3.761091   1.000000
   34       -3.641439   1.000000
   35       -3.518539   1.000000
   36       -3.466628   1.000000
   37       -3.375229   1.000000
   38       -3.354745   1.000000
   39       -3.315427   1.000000
   40       -3.258164   1.000000
   41       -3.143849   1.000000
   42       -3.084849   1.000000
   43       -2.696134   1.000000
   44       -2.472095   1.000000
   45       -2.399917   1.000000
   46       -2.328482   1.000000
   47       -2.298545   1.000000
   48       -2.186613   1.000000
   49       -2.144237   1.000000
   50       -1.983826   1.000000
   51       -1.891225   1.000000
   52       -1.855262   1.000000
   53       -1.791322   1.000000
   54       -1.740413   1.000000
   55       -1.663706   1.000000
   56       -1.614138   1.000000
   57       -1.507840   1.000000
   58       -1.408488   1.000000
   59       -1.384590   1.000000
   60       -1.321690   1.000000
   61       -1.261899   1.000000
   62       -1.239735   1.000000
   63       -1.146511   1.000000
   64       -1.138746   1.000000
   65       -1.070566   1.000000
   66       -0.976145   1.000000
   67       -0.919495   1.000000
   68       -0.820364   1.000000
   69       -0.748471   1.000000
   70       -0.632856   1.000000
   71       -0.555651   1.000000
   72       -0.419652   1.000000
   73       -0.382956   1.000000
   74       -0.314118   1.000000
   75       -0.216859   1.000000
   76       -0.165347   1.000000
   77       -0.088725   1.000000
   78        0.180700   1.000000
   79        0.305523   1.000000
   80        0.371556   1.000000
   81        0.600546   1.000000
   82        0.669645   1.000000
   83        0.791558   1.000000
   84        0.880740   1.000000
   85        1.111905   1.000000
   86        1.159080   1.000000
   87        1.237354   1.000000
   88        1.435951   1.000000
   89        1.455003   1.000000
   90        1.526291   1.000000
   91        1.663731   1.000000
   92        1.742004   1.000000
   93        1.768750   1.000000
   94        1.936909   1.000000
   95        1.987738   1.000000
   96        2.337842   1.004786
   97        2.398487   1.012712
   98        2.492765   1.032645
   99        2.676590   0.844922
  100        3.006250  -0.035289
  101        3.043296  -0.032558
  102        3.133018  -0.013443
  103        3.245966  -0.001859
  104        3.254739  -0.001542
  105        3.307135  -0.000460
  106        3.393839  -0.000044
  107        3.504620  -0.000001
  108        3.577192  -0.000000
  109        3.607286  -0.000000
  110        3.647621  -0.000000
  111        3.724255  -0.000000
  112        3.754319  -0.000000
  113        3.768894  -0.000000
  114        3.897321  -0.000000
  115        3.914201  -0.000000
  116        3.982602  -0.000000
  117        4.069312  -0.000000
  118        4.096083  -0.000000
  119        4.141023  -0.000000
  120        4.164863  -0.000000
  121        4.173581  -0.000000
  122        4.227835  -0.000000
  123        4.311567  -0.000000
  124        4.374461  -0.000000
  125        4.435828  -0.000000
  126        4.518939  -0.000000
  127        4.619406  -0.000000
  128        4.664879  -0.000000
  129        4.854003  -0.000000
  130        4.997991  -0.000000
  131        5.108905  -0.000000
  132        5.241668  -0.000000

  0.4444444E+00  0.3698634E-15  0.1262379E-14  0.2469136E-01
    1      -10.450437   1.000000
    2       -9.949185   1.000000
    3       -9.898172   1.000000
    4       -9.475571   1.000000
    5       -9.314826   1.000000
    6       -8.973376   1.000000
    7       -8.171033   1.000000
    8       -8.163415   1.000000
    9       -8.108579   1.000000
   10       -8.067719   1.000000
   11       -7.991140   1.000000
   12       -7.936097   1.000000
   13       -7.828273   1.000000
   14       -7.767072   1.000000
   15       -7.481522   1.000000
   16       -7.354622   1.000000
   17       -6.343734   1.000000
   18       -6.143918   1.000000
   19       -6.130344   1.000000
   20       -5.812501   1.000000
   21       -5.540658   1.000000
   22       -5.428603   1.000000
   23       -5.390793   1.000000
   24       -5.384725   1.000000
   25       -5.358093   1.000000
   26       -5.284913   1.000000
   27       -4.265248   1.000000
   28       -4.178599   1.000000
   29       -3.994569   1.000000
   30       -3.974296   1.000000
   31       -3.942373   1.000000
   32       -3.870672   1.000000
   33       -3.725013   1.000000
   34       -3.694268   1.000000
   35       -3.592331   1.000000
   36       -3.531713   1.000000
   37       -3.433762   1.000000
   38       -3.388948   1.000000
   39       -3.368030   1.000000
   40       -3.288713   1.000000
   41       -3.215659   1.000000
   42       -3.156396   1.000000
   43       -2.999877   1.000000
   44       -2.928382   1.000000
   45       -2.490991   1.000000
   46       -2.451786   1.000000
   47       -2.276576   1.000000
   48       -2.184102   1.000000
   49       -2.092314   1.000000
   50       -2.032867   1.000000
   51       -1.940560   1.000000
   52       -1.865107   1.000000
   53       -1.803195   1.000000
   54       -1.744468   1.000000
   55       -1.710712   1.000000
   56       -1.655029   1.000000
   57       -1.619168   1.000000
   58       -1.545852   1.000000
   59       -1.523715   1.000000
   60       -1.404339   1.000000
   61       -1.349588   1.000000
   62       -1.301276   1.000000
   63       -1.234242   1.000000
   64       -1.214718   1.000000
   65       -1.083774   1.000000
   66       -1.028414   1.000000
   67       -0.953088   1.000000
   68       -0.919679   1.000000
   69       -0.858382   1.000000
   70       -0.731113   1.000000
   71       -0.602748   1.000000
   72       -0.503539   1.000000
   73       -0.410102   1.000000
   74       -0.329601   1.000000
   75       -0.270117   1.000000
   76       -0.225752   1.000000
   77       -0.059081   1.000000
   78       -0.010018   1.000000
   79        0.334233   1.000000
   80        0.422245   1.000000
   81        0.503425   1.000000
   82        0.583394   1.000000
   83        0.820406   1.000000
   84        0.929716   1.000000
   85        0.997071   1.000000
   86        1.195420   1.000000
   87        1.252200   1.000000
   88        1.335864   1.000000
   89        1.443674   1.000000
   90        1.517757   1.000000
   91        1.638604   1.000000
   92        1.698279   1.000000
   93        1.744561   1.000000
   94        2.059534   1.000003
   95        2.133252   1.000034
   96        2.246745   1.000715
   97        2.478772   1.030019
   98        2.495151   1.033032
   99        2.582235   1.015902
  100        2.612944   0.983130
  101        2.639295   0.938123
  102        2.922618   0.016839
  103        3.015740  -0.035423
  104        3.212908  -0.003608
  105        3.282147  -0.000835
  106        3.385821  -0.000056
  107        3.454165  -0.000007
  108        3.478433  -0.000003
  109        3.540476  -0.000000
  110        3.568971  -0.000000
  111        3.640615  -0.000000
  112        3.679029  -0.000000
  113        3.705849  -0.000000
  114        3.851856  -0.000000
  115        3.876860  -0.000000
  116        3.952576  -0.000000
  117        4.035723  -0.000000
  118        4.057368  -0.000000
  119        4.150093  -0.000000
  120        4.163612  -0.000000
  121        4.217626  -0.000000
  122        4.257859  -0.000000
  123        4.325795  -0.000000
  124        4.404198  -0.000000
  125        4.537261  -0.000000
  126        4.557503  -0.000000
  127        4.612752  -0.000000
  128        4.640526  -0.000000
  129        4.765571  -0.000000
  130        5.018766  -0.000000
  131        5.182834  -0.000000
  132        5.218440  -0.000000

  0.3742002E-15  0.1111111E+00  0.1262379E-14  0.2469136E-01
    1      -11.254786   1.000000
    2      -10.668199   1.000000
    3       -9.862606   1.000000
    4       -8.581039   1.000000
    5       -8.380032   1.000000
    6       -8.345916   1.000000
    7       -8.095954   1.000000
    8       -8.088354   1.000000
    9       -7.831897   1.000000
   10       -7.679720   1.000000
   11       -7.651395   1.000000
   12       -7.638301   1.000000
   13       -7.587790   1.000000
   14       -7.573184   1.000000
   15       -6.950236   1.000000
   16       -6.889217   1.000000
   17       -6.698850   1.000000
   18       -6.665966   1.000000
   19       -6.550639   1.000000
   20       -6.442253   1.000000
   21       -6.279606   1.000000
   22       -5.985077   1.000000
   23       -5.932769   1.000000
   24       -5.732377   1.000000
   25       -5.685541   1.000000
   26       -5.570991   1.000000
   27       -5.534281   1.000000
   28       -5.441978   1.000000
   29       -5.181833   1.000000
   30       -4.974768   1.000000
   31       -4.497775   1.000000
   32       -4.265622   1.000000
   33       -4.242167   1.000000
   34       -4.065156   1.000000
   35       -4.025114   1.000000
   36       -3.894025   1.000000
   37       -3.676657   1.000000
   38       -3.254070   1.000000
   39       -3.005313   1.000000
   40       -2.865251   1.000000
   41       -2.692865   1.000000
   42       -2.566988   1.000000
   43       -2.498795   1.000000
   44       -2.429836   1.000000
   45       -2.278434   1.000000
   46       -2.257486   1.000000
   47       -2.186090   1.000000
   48       -2.079454   1.000000
   49       -1.875887   1.000000
   50       -1.774041   1.000000
   51       -1.748528   1.000000
   52       -1.677552   1.000000
   53       -1.605788   1.000000
   54       -1.506250   1.000000
   55       -1.427388   1.000000
   56       -1.395384   1.000000
   57       -1.340759   1.000000
   58       -1.232774   1.000000
   59       -1.176362   1.000000
   60       -1.165602   1.000000
   61       -1.123175   1.000000
   62       -1.050683   1.000000
   63       -0.968832   1.000000
   64       -0.876560   1.000000
   65       -0.868675   1.000000
   66       -0.804627   1.000000
   67       -0.724776   1.000000
   68       -0.588679   1.000000
   69       -0.509226   1.000000
   70       -0.472180   1.000000
   71       -0.419039   1.000000
   72       -0.337363   1.000000
   73       -0.239221   1.000000
   74       -0.034834   1.000000
   75        0.004416   1.000000
   76        0.072391   1.000000
   77        0.141612   1.000000
   78        0.309068   1.000000
   79        0.373929   1.000000
   80        0.457417   1.000000
   81        0.596838   1.000000
   82        0.744485   1.000000
   83        1.081026   1.000000
   84        1.217152   1.000000
   85        1.293664   1.000000
   86        1.363420   1.000000
   87        1.450496   1.000000
   88        1.613083   1.000000
   89        1.685488   1.000000
   90        1.748661   1.000000
   91        1.775815   1.000000
   92        1.805525   1.000000
   93        1.870150   1.000000
   94        1.973008   1.000000
   95        2.084160   1.000007
   96        2.126090   1.000028
   97        2.580629   1.017104
   98        2.674297   0.851649
   99        2.862197   0.145587
  100        2.971004  -0.026725
  101        3.019171  -0.035304
  102        3.096319  -0.021102
  103        3.248264  -0.001770
  104        3.309746  -0.000431
  105        3.495561  -0.000002
  106        3.660889  -0.000000
  107        3.665201  -0.000000
  108        3.741838  -0.000000
  109        3.760291  -0.000000
  110        3.769473  -0.000000
  111        3.802081  -0.000000
  112        3.860419  -0.000000
  113        3.900920  -0.000000
  114        3.939674  -0.000000
  115        3.989682  -0.000000
  116        4.000116  -0.000000
  117        4.057159  -0.000000
  118        4.084626  -0.000000
  119        4.158212  -0.000000
  120        4.195243  -0.000000
  121        4.215081  -0.000000
  122        4.266336  -0.000000
  123        4.352735  -0.000000
  124        4.397271  -0.000000
  125        4.514777  -0.000000
  126        4.540933  -0.000000
  127        4.854407  -0.000000
  128        5.231272  -0.000000
  129        5.897435  -0.000000
  130        6.364266  -0.000000
  131        6.521197  -0.000000
  132        6.722616  -0.000000

  0.1111111E+00  0.1111111E+00  0.1262379E-14  0.2469136E-01
    1      -11.140517   1.000000
    2      -10.564751   1.000000
    3       -9.782819   1.000000
    4       -8.512869   1.000000
    5       -8.479987   1.000000
    6       -8.395216   1.000000
    7       -8.314892   1.000000
    8       -8.314069   1.000000
    9       -8.220610   1.000000
   10       -8.042974   1.000000
   11       -7.923267   1.000000
   12       -7.722694   1.000000
   13       -7.492516   1.000000
   14       -7.210304   1.000000
   15       -7.110654   1.000000
   16       -6.683923   1.000000
   17       -6.621723   1.000000
   18       -6.508682   1.000000
   19       -6.505269   1.000000
   20       -6.386251   1.000000
   21       -5.956357   1.000000
   22       -5.952319   1.000000
   23       -5.881391   1.000000
   24       -5.621602   1.000000
   25       -5.607030   1.000000
   26       -5.477490   1.000000
   27       -5.313917   1.000000
   28       -5.182881   1.000000
   29       -5.078125   1.000000
   30       -4.873618   1.000000
   31       -4.646898   1.000000
   32       -4.375983   1.000000
   33       -3.803449   1.000000
   34       -3.785146   1.000000
   35       -3.714004   1.000000
   36       -3.683154   1.000000
   37       -3.452346   1.000000
   38       -3.291318   1.000000
   39       -3.096194   1.000000
   40       -3.058885   1.000000
   41       -2.948601   1.000000
   42       -2.825221   1.000000
   43       -2.499571   1.000000
   44       -2.400958   1.000000
   45       -2.245967   1.000000
   46       -2.238411   1.000000
   47       -2.168441   1.000000
   48       -2.137582   1.000000
   49       -1.953414   1.000000
   50       -1.942278   1.000000
   51       -1.749078   1.000000
   52       -1.744819   1.000000
   53       -1.597497   1.000000
   54       -1.569920   1.000000
   55       -1.553654   1.000000
   56       -1.466688   1.000000
   57       -1.433845   1.000000
   58       -1.338917   1.000000
   59       -1.143035   1.000000
   60       -1.141365   1.000000
   61       -1.063902   1.000000
   62       -1.041180   1.000000
   63       -1.024079   1.000000
   64       -0.934282   1.000000
   65       -0.908366   1.000000
   66       -0.866594   1.000000
   67       -0.813741   1.000000
   68       -0.679506   1.000000
   69       -0.616802   1.000000
   70       -0.568356   1.000000
   71       -0.459842   1.000000
   72       -0.379317   1.000000
   73       -0.368211   1.000000
   74       -0.217628   1.000000
   75       -0.172322   1.000000
   76        0.022104   1.000000
   77        0.186283   1.000000
   78        0.310199   1.000000
   79        0.366491   1.000000
   80        0.476329   1.000000
   81        0.539706   1.000000
   82        0.723824   1.000000
   83        0.738358   1.000000
   84        0.987549   1.000000
   85        1.185286   1.000000
   86        1.235666   1.000000
   87        1.526451   1.000000
   88        1.559596   1.000000
   89        1.609868   1.000000
   90        1.655617   1.000000
   91        1.658585   1.000000
   92        1.754098   1.000000
   93        1.815284   1.000000
   94        1.895344   1.000000
   95        1.987391   1.000000
   96        2.316100   1.003181
   97        2.679612   0.835866
   98        2.702311   0.761217