   59   59   85    1
  0.1289690E+02  0.6088057E-09  0.6088057E-09  0.2372246E-08  0.5000000E-15
   1.0000000000000000E-004
  CAR 
 Name                                    
    205     41    132

  0.3742002E-15  0.3742002E-15  0.1262379E-14  0.1234568E-01
    1      -11.334935   1.000000
    2      -10.932565   1.000000
    3      -10.517283   1.000000
    4       -9.744102   1.000000
    5       -8.523908   1.000000
    6       -8.440840   1.000000
    7       -8.152260   1.000000
    8       -7.975615   1.000000
    9       -7.870926   1.000000
   10       -7.731755   1.000000
   11       -7.705279   1.000000
   12       -7.564050   1.000000
   13       -7.548858   1.000000
   14       -7.479526   1.000000
   15       -7.459954   1.000000
   16       -7.401259   1.000000
   17       -7.199478   1.000000
   18       -7.156509   1.000000
   19       -7.119160   1.000000
   20       -7.099846   1.000000
   21       -6.820768   1.000000
   22       -6.754418   1.000000
   23       -6.635038   1.000000
   24       -6.202778   1.000000
   25       -5.912192   1.000000
   26       -5.886719   1.000000
   27       -5.818382   1.000000
   28       -5.736329   1.000000
   29       -5.689216   1.000000
   30       -5.676224   1.000000
   31       -5.370776   1.000000
   32       -4.811089   1.000000
   33       -4.551127   1.000000
   34       -4.447083   1.000000
   35       -4.408128   1.000000
   36       -4.379142   1.000000
   37       -4.283152   1.000000
   38       -3.461568   1.000000
   39       -3.355320   1.000000
   40       -3.001753   1.000000
   41       -2.939409   1.000000
   42       -2.779958   1.000000
   43       -2.620175   1.000000
   44       -2.575818   1.000000
   45       -2.427130   1.000000
   46       -2.351543   1.000000
   47       -2.287163   1.000000
   48       -2.216253   1.000000
   49       -2.199906   1.000000
   50       -2.065380   1.000000
   51       -1.934816   1.000000
   52       -1.888205   1.000000
   53       -1.844967   1.000000
   54       -1.739074   1.000000
   55       -1.710489   1.000000
   56       -1.626035   1.000000
   57       -1.611694   1.000000
   58       -1.588368   1.000000
   59       -1.509120   1.000000
   60       -1.486060   1.000000
   61       -1.466774   1.000000
   62       -1.313026   1.000000
   63       -1.283767   1.000000
   64       -1.116860   1.000000
   65       -1.076649   1.000000
   66       -1.044364   1.000000
   67       -0.994931   1.000000
   68       -0.914642   1.000000
   69       -0.861896   1.000000
   70       -0.673685   1.000000
   71       -0.622007   1.000000
   72       -0.609637   1.000000
   73       -0.520517   1.000000
   74       -0.468294   1.000000
   75       -0.431508   1.000000
   76       -0.404933   1.000000
   77       -0.210295   1.000000
   78       -0.007966   1.000000
   79        0.033675   1.000000
   80        0.092476   1.000000
   81        0.102419   1.000000
   82        0.351982   1.000000
   83        0.483860   1.000000
   84        0.684579   1.000000
   85        0.776567   1.000000
   86        0.910034   1.000000
   87        1.253563   1.000000
   88        1.341588   1.000000
   89        1.348111   1.000000
   90        1.372893   1.000000
   91        1.531739   1.000000
   92        1.576900   1.000000
   93        1.591577   1.000000
   94        1.715889   1.000000
   95        1.783463   1.000000
   96        1.786448   1.000000
   97        1.807424   1.000000
   98        1.940438   1.000000
   99        2.293975   1.000173
  100        2.840298   0.630358
  101        2.855793   0.566334
  102        2.926267   0.277701
  103        2.932156   0.256047
  104        3.109618  -0.035268
  105        3.144100  -0.033039
  106        3.260473  -0.009518
  107        3.364236  -0.001361
  108        3.432300  -0.000268
  109        3.689339  -0.000000
  110        3.759228  -0.000000
  111        3.819059  -0.000000
  112        3.833861  -0.000000
  113        3.944152  -0.000000
  114        4.037262  -0.000000
  115        4.041272  -0.000000
  116        4.050917  -0.000000
  117        4.073270  -0.000000
  118        4.125261  -0.000000
  119        4.152486  -0.000000
  120        4.165657  -0.000000
  121        4.209045  -0.000000
  122        4.233058  -0.000000
  123        4.341273  -0.000000
  124        4.394334  -0.000000
  125        4.415315  -0.000000
  126        4.447227  -0.000000
  127        4.512021  -0.000000
  128        4.523960  -0.000000
  129        4.570638  -0.000000
  130        4.676831  -0.000000
  131        4.753267  -0.000000
  132        4.985619  -0.000000

  0.1111111E+00  0.3857958E-15  0.1262379E-14  0.2469136E-01
    1      -11.278320   1.000000
    2      -10.887266   1.000000
    3      -10.474947   1.000000
    4       -9.712303   1.000000
    5       -8.489347   1.000000
    6       -8.456289   1.000000
    7       -8.232495   1.000000
    8       -8.159037   1.000000
    9       -8.049412   1.000000
   10       -7.894824   1.000000
   11       -7.798533   1.000000
   12       -7.776350   1.000000
   13       -7.742811   1.000000
   14       -7.697424   1.000000
   15       -7.597953   1.000000
   16       -7.536785   1.000000
   17       -7.216004   1.000000
   18       -6.974081   1.000000
   19       -6.913546   1.000000
   20       -6.705106   1.000000
   21       -6.633290   1.000000
   22       -6.559453   1.000000
   23       -6.386946   1.000000
   24       -6.067601   1.000000
   25       -5.917405   1.000000
   26       -5.898162   1.000000
   27       -5.801363   1.000000
   28       -5.689029   1.000000
   29       -5.632398   1.000000
   30       -5.531788   1.000000
   31       -5.293356   1.000000
   32       -4.682924   1.000000
   33       -4.452619   1.000000
   34       -4.379211   1.000000
   35       -4.362172   1.000000
   36       -4.246464   1.000000
   37       -4.171946   1.000000
   38       -3.431386   1.000000
   39       -3.314731   1.000000
   40       -3.033585   1.000000
   41       -2.978490   1.000000
   42       -2.764472   1.000000
   43       -2.711830   1.000000
   44       -2.591364   1.000000
   45       -2.482968   1.000000
   46       -2.461438   1.000000
   47       -2.385918   1.000000
   48       -2.269111   1.000000
   49       -2.230952   1.000000
   50       -2.149757   1.000000
   51       -2.046475   1.000000
   52       -1.941018   1.000000
   53       -1.782568   1.000000
   54       -1.731310   1.000000
   55       -1.710099   1.000000
   56       -1.665254   1.000000
   57       -1.601052   1.000000
   58       -1.577245   1.000000
   59       -1.530642   1.000000
   60       -1.495471   1.000000
   61       -1.466573   1.000000
   62       -1.361925   1.000000
   63       -1.279414   1.000000
   64       -1.143302   1.000000
   65       -1.121538   1.000000
   66       -1.077030   1.000000
   67       -1.035037   1.000000
   68       -0.920696   1.000000
   69       -0.895747   1.000000
   70       -0.786376   1.000000
   71       -0.724291   1.000000
   72       -0.622234   1.000000
   73       -0.535524   1.000000
   74       -0.516493   1.000000
   75       -0.436924   1.000000
   76       -0.341045   1.000000
   77       -0.228046   1.000000
   78       -0.067933   1.000000
   79        0.006572   1.000000
   80        0.088960   1.000000
   81        0.118045   1.000000
   82        0.273633   1.000000
   83        0.333546   1.000000
   84        0.488255   1.000000
   85        0.773470   1.000000
   86        0.844614   1.000000
   87        1.087220   1.000000
   88        1.104291   1.000000
   89        1.256925   1.000000
   90        1.289912   1.000000
   91        1.427736   1.000000
   92        1.593481   1.000000
   93        1.625085   1.000000
   94        1.660075   1.000000
   95        1.731718   1.000000
   96        1.829309   1.000000
   97        1.927362   1.000000
   98        2.136206   1.000001
   99        2.511424   1.014412
  100        2.707089   0.995505
  101        2.822222   0.701750
  102        2.957927   0.169492
  103        2.969226   0.136276
  104        3.033682   0.007243
  105        3.088834  -0.031934
  106        3.372732  -0.001127
  107        3.466471  -0.000107
  108        3.565786  -0.000005
  109        3.674174  -0.000000
  110        3.740419  -0.000000
  111        3.814914  -0.000000
  112        3.829006  -0.000000
  113        3.914848  -0.000000
  114        3.981759  -0.000000
  115        3.995740  -0.000000
  116        4.056257  -0.000000
  117        4.064161  -0.000000
  118        4.081320  -0.000000
  119        4.114295  -0.000000
  120        4.164582  -0.000000
  121        4.175185  -0.000000
  122        4.227577  -0.000000
  123        4.314033  -0.000000
  124        4.339921  -0.000000
  125        4.367127  -0.000000
  126        4.405697  -0.000000
  127        4.454030  -0.000000
  128        4.512906  -0.000000
  129        4.573831  -0.000000
  130        4.675519  -0.000000
  131        4.843045  -0.000000
  132        4.867735  -0.000000

  0.2222222E+00  0.3935346E-15  0.1262379E-14  0.2469136E-01
    1      -11.111297   1.000000
    2      -10.757951   1.000000
    3      -10.350325   1.000000
    4       -9.619785   1.000000
    5       -8.772804   1.000000
    6       -8.562722   1.000000
    7       -8.527608   1.000000
    8       -8.416676   1.000000
    9       -8.367187   1.000000
   10       -8.050868   1.000000
   11       -7.988645   1.000000
   12       -7.957809   1.000000
   13       -7.855373   1.000000
   14       -7.807730   1.000000
   15       -7.773598   1.000000
   16       -7.738994   1.000000
   17       -7.336411   1.000000
   18       -6.876206   1.000000
   19       -6.580102   1.000000
   20       -6.559984   1.000000
   21       -6.320026   1.000000
   22       -6.269575   1.000000
   23       -5.877140   1.000000
   24       -5.830146   1.000000
   25       -5.707697   1.000000
   26       -5.681272   1.000000
   27       -5.592914   1.000000
   28       -5.536437   1.000000
   29       -5.462348   1.000000
   30       -5.123306   1.000000
   31       -5.034268   1.000000
   32       -4.496357   1.000000
   33       -4.251091   1.000000
   34       -4.240511   1.000000
   35       -4.126080   1.000000
   36       -4.065511   1.000000
   37       -3.683388   1.000000
   38       -3.366556   1.000000
   39       -3.227150   1.000000
   40       -3.174703   1.000000
   41       -3.077105   1.000000
   42       -3.006123   1.000000
   43       -2.933623   1.000000
   44       -2.890390   1.000000
   45       -2.705941   1.000000
   46       -2.663380   1.000000
   47       -2.480905   1.000000
   48       -2.352961   1.000000
   49       -2.252801   1.000000
   50       -2.168887   1.000000
   51       -2.054156   1.000000
   52       -1.968476   1.000000
   53       -1.904770   1.000000
   54       -1.869343   1.000000
   55       -1.766112   1.000000
   56       -1.742617   1.000000
   57       -1.651639   1.000000
   58       -1.636606   1.000000
   59       -1.554442   1.000000
   60       -1.527767   1.000000
   61       -1.498628   1.000000
   62       -1.416946   1.000000
   63       -1.312472   1.000000
   64       -1.267603   1.000000
   65       -1.215323   1.000000
   66       -1.166282   1.000000
   67       -1.116868   1.000000
   68       -1.058921   1.000000
   69       -0.991433   1.000000
   70       -0.886253   1.000000
   71       -0.810597   1.000000
   72       -0.762225   1.000000
   73       -0.722162   1.000000
   74       -0.568945   1.000000
   75       -0.509890   1.000000
   76       -0.354493   1.000000
   77       -0.285601   1.000000
   78       -0.190357   1.000000
   79       -0.076862   1.000000
   80       -0.011144   1.000000
   81        0.075315   1.000000
   82        0.123086   1.000000
   83        0.348305   1.000000
   84        0.417471   1.000000
   85        0.563336   1.000000
   86        0.709503   1.000000
   87        0.844930   1.000000
   88        0.952496   1.000000
   89        1.060300   1.000000
   90        1.177387   1.000000
   91        1.356407   1.000000
   92        1.399462   1.000000
   93        1.546025   1.000000
   94        1.579446   1.000000
   95        1.730028   1.000000
   96        1.872001   1.000000
   97        2.012861   1.000000
   98        2.137560   1.000001
   99        2.442374   1.004854
  100        2.593293   1.032091
  101        2.839113   0.635165
  102        2.912202   0.331759
  103        3.123823  -0.035260
  104        3.207125  -0.019516
  105        3.296804  -0.005203
  106        3.417661  -0.000389
  107        3.497686  -0.000044
  108        3.526322  -0.000019
  109        3.585909  -0.000003
  110        3.630273  -0.000001
  111        3.675677  -0.000000
  112        3.699926  -0.000000
  113        3.800237  -0.000000
  114        3.904567  -0.000000
  115        3.918696  -0.000000
  116        3.973106  -0.000000
  117        4.007883  -0.000000
  118        4.027052  -0.000000
  119        4.063373  -0.000000
  120        4.115497  -0.000000
  121        4.161264  -0.000000
  122        4.231821  -0.000000
  123        4.265646  -0.000000
  124        4.348270  -0.000000
  125        4.380306  -0.000000
  126        4.455686  -0.000000
  127        4.479199  -0.000000
  128        4.520020  -0.000000
  129        4.555872  -0.000000
  130        4.634963  -0.000000
  131        4.738402  -0.000000
  132        4.938775  -0.000000

  0.3333333E+00  0.3939838E-15  0.1262379E-14  0.2469136E-01
    1      -10.845573   1.000000
    2      -10.569684   1.000000
    3      -10.149287   1.000000
    4       -9.481044   1.000000
    5       -9.367818   1.000000
    6       -9.042242   1.000000
    7       -8.785703   1.000000
    8       -8.639226   1.000000
    9       -8.202833   1.000000
   10       -8.154862   1.000000
   11       -8.121049   1.000000
   12       -8.105548   1.000000
   13       -7.972551   1.000000
   14       -7.904784   1.000000
   15       -7.825811   1.000000
   16       -7.792535   1.000000
   17       -7.460166   1.000000
   18       -7.238565   1.000000
   19       -6.403176   1.000000
   20       -6.346784   1.000000
   21       -5.890884   1.000000
   22       -5.825492   1.000000
   23       -5.741678   1.000000
   24       -5.650566   1.000000
   25       -5.621882   1.000000
   26       -5.428246   1.000000
   27       -5.265663   1.000000
   28       -4.959847   1.000000
   29       -4.828808   1.000000
   30       -4.739562   1.000000
   31       -4.484148   1.000000
   32       -4.309916   1.000000
   33       -4.028377   1.000000
   34       -3.961238   1.000000
   35       -3.922774   1.000000
   36       -3.695088   1.000000
   37       -3.566827   1.000000
   38       -3.467720   1.000000
   39       -3.429911   1.000000
   40       -3.400518   1.000000
   41       -3.331625   1.000000
   42       -3.276790   1.000000
   43       -3.172290   1.000000
   44       -3.008680   1.000000
   45       -2.904139   1.000000
   46       -2.648027   1.000000
   47       -2.581601   1.000000
   48       -2.456740   1.000000
   49       -2.346569   1.000000
   50       -2.270471   1.000000
   51       -2.188594   1.000000
   52       -2.117218   1.000000
   53       -2.038298   1.000000
   54       -1.943838   1.000000
   55       -1.878011   1.000000
   56       -1.837517   1.000000
   57       -1.820385   1.000000
   58       -1.759494   1.000000
   59       -1.715763   1.000000
   60       -1.644283   1.000000
   61       -1.598180   1.000000
   62       -1.487051   1.000000
   63       -1.437031   1.000000
   64       -1.371385   1.000000
   65       -1.305401   1.000000
   66       -1.247555   1.000000
   67       -1.238644   1.000000
   68       -1.149394   1.000000
   69       -1.050911   1.000000
   70       -0.982811   1.000000
   71       -0.919208   1.000000
   72       -0.854214   1.000000
   73       -0.795726   1.000000
   74       -0.655768   1.000000
   75       -0.553118   1.000000
   76       -0.410620   1.000000
   77       -0.401573   1.000000
   78       -0.307351   1.000000
   79       -0.196785   1.000000
   80       -0.064399   1.000000
   81       -0.002946   1.000000
   82        0.116685   1.000000
   83        0.173239   1.000000
   84        0.413895   1.000000
   85        0.503400   1.000000
   86        0.608773   1.000000
   87        0.846064   1.000000
   88        0.971521   1.000000
   89        1.026088   1.000000
   90        1.161470   1.000000
   91        1.224016   1.000000
   92        1.256699   1.000000
   93        1.411081   1.000000
   94        1.513455   1.000000
   95        1.614108   1.000000
   96        1.723983   1.000000
   97        1.899614   1.000000
   98        2.324468   1.000380
   99        2.367275   1.001053
  100        2.422828   1.003370
  101        2.769075   0.876749
  102        2.895587   0.398992
  103        2.957609   0.170469
  104        3.023081   0.021554
  105        3.165509  -0.028969
  106        3.268661  -0.008371
  107        3.317837  -0.003528
  108        3.402223  -0.000568
  109        3.468467  -0.000102
  110        3.513158  -0.000028
  111        3.579961  -0.000003
  112        3.602033  -0.000002
  113        3.732053  -0.000000
  114        3.801578  -0.000000
  115        3.863033  -0.000000
  116        3.899456  -0.000000
  117        3.989586  -0.000000
  118        4.021377  -0.000000
  119        4.040543  -0.000000
  120        4.147385  -0.000000
  121        4.200992  -0.000000
  122        4.264821  -0.000000
  123        4.286711  -0.000000
  124        4.354839  -0.000000
  125        4.420989  -0.000000
  126        4.471370  -0.000000
  127        4.485858  -0.000000
  128        4.628490  -0.000000
  129        4.666235  -0.000000
  130        4.740824  -0.000000
  131        4.808192  -0.000000
  132        4.942808  -0.000000

  0.4444444E+00  0.3881204E-15  0.1262379E-14  0.2469136E-01
    1      -10.549280   1.000000
    2      -10.361090   1.000000
    3       -9.913125   1.000000
    4       -9.855870   1.000000
    5       -9.495745   1.000000
    6       -9.279489   1.000000
    7       -9.059726   1.000000
    8       -8.807498   1.000000
    9       -8.204371   1.000000
   10       -8.195601   1.000000
   11       -8.172469   1.000000
   12       -8.037811   1.000000
   13       -7.973860   1.000000
   14       -7.934085   1.000000
   15       -7.853124   1.000000
   16       -7.787128   1.000000
   17       -7.611944   1.000000
   18       -7.529814   1.000000
   19       -6.357381   1.000000
   20       -6.236769   1.000000
   21       -5.702371   1.000000
   22       -5.574234   1.000000
   23       -5.493168   1.000000
   24       -5.455197   1.000000
   25       -5.400519   1.000000
   26       -5.332631   1.000000
   27       -4.935537   1.000000
   28       -4.599131   1.000000
   29       -4.325357   1.000000
   30       -4.127673   1.000000
   31       -4.044765   1.000000
   32       -4.014551   1.000000
   33       -3.946259   1.000000
   34       -3.876228   1.000000
   35       -3.839545   1.000000
   36       -3.762644   1.000000
   37       -3.707266   1.000000
   38       -3.668665   1.000000
   39       -3.618133   1.000000
   40       -3.566355   1.000000
   41       -3.477336   1.000000
   42       -3.382973   1.000000
   43       -3.267261   1.000000
   44       -3.153932   1.000000
   45       -3.108086   1.000000
   46       -2.872444   1.000000
   47       -2.628858   1.000000
   48       -2.539737   1.000000
   49       -2.412490   1.000000
   50       -2.341868   1.000000
   51       -2.291079   1.000000
   52       -2.230584   1.000000
   53       -2.120470   1.000000
   54       -2.066685   1.000000
   55       -1.965794   1.000000
   56       -1.924927   1.000000
   57       -1.867042   1.000000
   58       -1.804266   1.000000
   59       -1.788976   1.000000
   60       -1.694640   1.000000
   61       -1.653437   1.000000
   62       -1.587634   1.000000
   63       -1.514938   1.000000
   64       -1.435677   1.000000
   65       -1.356048   1.000000
   66       -1.330570   1.000000
   67       -1.291697   1.000000
   68       -1.199058   1.000000
   69       -1.138736   1.000000
   70       -1.066303   1.000000
   71       -0.954696   1.000000
   72       -0.897441   1.000000
   73       -0.816979   1.000000
   74       -0.687277   1.000000
   75       -0.601175   1.000000
   76       -0.476017   1.000000
   77       -0.461292   1.000000
   78       -0.371049   1.000000
   79       -0.242461   1.000000
   80       -0.154571   1.000000
   81        0.034211   1.000000
   82        0.060989   1.000000
   83        0.209655   1.000000
   84        0.290605   1.000000
   85        0.498252   1.000000
   86        0.631788   1.000000
   87        0.908295   1.000000
   88        0.941371   1.000000
   89        1.068044   1.000000
   90        1.079637   1.000000
   91        1.210864   1.000000
   92        1.300716   1.000000
   93        1.320476   1.000000
   94        1.483235   1.000000
   95        1.538328   1.000000
   96        1.674723   1.000000
   97        1.904391   1.000000
   98        2.336440   1.000510
   99        2.402608   1.002254
  100        2.446682   1.005244
  101        2.494447   1.011372
  102        2.654355   1.031895
  103        2.744055   0.936069
  104        2.871367   0.500664
  105        2.962591   0.155411
  106        3.088655  -0.031885
  107        3.179176  -0.025918
  108        3.278177  -0.007169
  109        3.369645  -0.001207
  110        3.451005  -0.000164
  111        3.476614  -0.000081
  112        3.557557  -0.000007
  113        3.606948  -0.000001
  114        3.743362  -0.000000
  115        3.768136  -0.000000
  116        3.835310  -0.000000
  117        3.882653  -0.000000
  118        3.996590  -0.000000
  119        4.004969  -0.000000
  120        4.124892  -0.000000
  121        4.232367  -0.000000
  122        4.282817  -0.000000
  123        4.413914  -0.000000
  124        4.471340  -0.000000
  125        4.490995  -0.000000
  126        4.524015  -0.000000
  127        4.632812  -0.000000
  128        4.734216  -0.000000
  129        4.755318  -0.000000
  130        4.858123  -0.000000
  131        4.938853  -0.000000
  132        5.020857  -0.000000

  0.3742002E-15  0.1111111E+00  0.1262379E-14  0.2469136E-01
    1      -11.278204   1.000000
    2      -10.887532   1.000000
    3      -10.476208   1.000000
    4       -9.713595   1.000000
    5       -8.489591   1.000000
    6       -8.456947   1.000000
    7       -8.243453   1.000000
    8       -8.163415   1.000000
    9       -8.065481   1.000000
   10       -7.895497   1.000000
   11       -7.802007   1.000000
   12       -7.776744   1.000000
   13       -7.737852   1.000000
   14       -7.680458   1.000000
   15       -7.569898   1.000000
   16       -7.533183   1.000000
   17       -7.154350   1.000000
   18       -6.969747   1.000000
   19       -6.912931   1.000000
   20       -6.706112   1.000000
   21       -6.635538   1.000000
   22       -6.561084   1.000000
   23       -6.401010   1.000000
   24       -6.168028   1.000000
   25       -5.924885   1.000000
   26       -5.877270   1.000000
   27       -5.806736   1.000000
   28       -5.682557   1.000000
   29       -5.631675   1.000000
   30       -5.534170   1.000000
   31       -5.289002   1.000000
   32       -4.765701   1.000000
   33       -4.425027   1.000000
   34       -4.371510   1.000000
   35       -4.357987   1.000000
   36       -4.255149   1.000000
   37       -4.107913   1.000000
   38       -3.442600   1.000000
   39       -3.309242   1.000000
   40       -3.035039   1.000000
   41       -2.979068   1.000000
   42       -2.767867   1.000000
   43       -2.703343   1.000000
   44       -2.589829   1.000000
   45       -2.478463   1.000000
   46       -2.464116   1.000000
   47       -2.385047   1.000000
   48       -2.252327   1.000000
   49       -2.237346   1.000000
   50       -2.143135   1.000000
   51       -2.040841   1.000000
   52       -1.941358   1.000000
   53       -1.781094   1.000000
   54       -1.738274   1.000000
   55       -1.703369   1.000000
   56       -1.645457   1.000000
   57       -1.608170   1.000000
   58       -1.578811   1.000000
   59       -1.555900   1.000000
   60       -1.481136   1.000000
   61       -1.458396   1.000000
   62       -1.325421   1.000000
   63       -1.278061   1.000000
   64       -1.157742   1.000000
   65       -1.117007   1.000000
   66       -1.093201   1.000000
   67       -1.028384   1.000000
   68       -0.919337   1.000000
   69       -0.892894   1.000000
   70       -0.792844   1.000000
   71       -0.706609   1.000000
   72       -0.626441   1.000000
   73       -0.547306   1.000000
   74       -0.484715   1.000000
   75       -0.437868   1.000000
   76       -0.339394   1.000000
   77       -0.230602   1.000000
   78       -0.088123   1.000000
   79       -0.013509   1.000000
   80        0.065576   1.000000
   81        0.098452   1.000000
   82        0.224240   1.000000
   83        0.417827   1.000000
   84        0.512223   1.000000
   85        0.720171   1.000000
   86        0.818230   1.000000
   87        1.091512   1.000000
   88        1.108669   1.000000
   89        1.251421   1.000000
   90        1.324746   1.000000
   91        1.403941   1.000000
   92        1.597796   1.000000
   93        1.624638   1.000000
   94        1.664576   1.000000
   95        1.735002   1.000000
   96        1.828046   1.000000
   97        1.932288   1.000000
   98        2.146730   1.000002
   99        2.467546   1.007493
  100        2.761303   0.896863
  101        2.820183   0.709508
  102        2.939878   0.228644
  103        2.966992   0.142600
  104        3.014758   0.034607
  105        3.135275  -0.034263
  106        3.317692  -0.003538
  107        3.460027  -0.000128
  108        3.568928  -0.000005
  109        3.670527  -0.000000
  110        3.741449  -0.000000
  111        3.815325  -0.000000
  112        3.826956  -0.000000
  113        3.918216  -0.000000
  114        3.981704  -0.000000
  115        3.994399  -0.000000
  116        4.049579  -0.000000
  117        4.065058  -0.000000
  118        4.080543  -0.000000
  119        4.138011  -0.000000
  120        4.159174  -0.000000
  121        4.171621  -0.000000
  122        4.242552  -0.000000
  123        4.298214  -0.000000
  124        4.343540  -0.000000
  125        4.365181  -0.000000
  126        4.404394  -0.000000
  127        4.450207  -0.000000
  128        4.516535  -0.000000
  129        4.588844  -0.000000
  130        4.686822  -0.000000
  131        4.812306  -0.000000
  132        4.879718  -0.000000

  0.1111111E+00  0.1111111E+00  0.1262379E-14  0.2469136E-01
    1      -11.165751   1.000000
    2      -10.801081   1.000000
    3      -10.394128   1.000000
    4       -9.651203   1.000000
    5       -8.517442   1.000000
    6       -8.489313   1.000000
    7       -8.419583   1.000000
    8       -8.352616   1.000000
    9       -8.312586   1.000000
   10       -8.263999   1.000000
   11       -8.083263   1.000000
   12       -8.042061   1.000000
   13       -7.847976   1.000000
   14       -7.785290   1.000000
   15       -7.587634   1.000000
   16       -7.228909   1.000000
   17       -7.193646   1.000000
   18       -7.023211   1.000000
   19       -6.726242   1.000000
   20       -6.644393   1.000000
   21       -6.524214   1.000000
   22       -6.168901   1.000000
   23       -6.063975   1.000000
   24       -5.969634   1.000000
   25       -5.852550   1.000000
   26       -5.794333   1.000000
   27       -5.660481   1.000000
   28       -5.636002   1.000000
   29       -5.444620   1.000000
   30       -5.262831   1.000000
   31       -5.143082   1.000000
   32       -4.554537   1.000000
   33       -4.500722   1.000000
   34       -4.248644   1.000000
   35       -4.082398   1.000000
   36       -3.940635   1.000000
   37       -3.913824   1.000000
   38       -3.415626   1.000000
   39       -3.246968   1.000000
   40       -3.150926   1.000000
   41       -3.094351   1.000000
   42       -2.962265   1.000000
   43       -2.933139   1.000000
   44       -2.686255   1.000000
   45       -2.574413   1.000000
   46       -2.473928   1.000000
   47       -2.369534   1.000000
   48       -2.308214   1.000000
   49       -2.266165   1.000000
   50       -2.178332   1.000000
   51       -2.026640   1.000000
   52       -1.981729   1.000000
   53       -1.891302   1.000000
   54       -1.826401   1.000000
   55       -1.725932   1.000000
   56       -1.671008   1.000000
   57       -1.648293   1.000000
   58       -1.600927   1.000000
   59       -1.590020   1.000000
   60       -1.551162   1.000000
   61       -1.452532   1.000000
   62       -1.383513   1.000000
   63       -1.328282   1.000000
   64       -1.209431   1.000000
   65       -1.178694   1.000000
   66       -1.116553   1.000000
   67       -1.067877   1.000000
   68       -1.018010   1.000000
   69       -0.916219   1.000000
   70       -0.886082   1.000000
   71       -0.829256   1.000000
   72       -0.698049   1.000000
   73       -0.605613   1.000000
   74       -0.518328   1.000000
   75       -0.470528   1.000000
   76       -0.449656   1.000000
   77       -0.372714   1.000000
   78       -0.138491   1.000000
   79       -0.040057   1.000000
   80        0.004121   1.000000
   81        0.120599   1.000000
   82        0.227726   1.000000
   83        0.253001   1.000000
   84        0.407788   1.000000
   85        0.582138   1.000000
   86        0.691782   1.000000
   87        0.764193   1.000000
   88        1.037552   1.000000
   89        1.161829   1.000000
   90        1.312756   1.000000
   91        1.406910   1.000000
   92        1.480640   1.000000
   93        1.523566   1.000000
   94        1.576191   1.000000
   95        1.655524   1.000000
   96        1.709973   1.000000
   97        2.051025   1.000000
   98        2.238373   1.000036