   57   57    1    1
  0.1334943E+02  0.6088057E-09  0.6088057E-09  0.2372246E-08  0.5000000E-15
   1.0000000000000000E-004
  CAR 
 Name                                    
    203     41    132

  0.3742002E-15  0.3742002E-15  0.1262379E-14  0.1234568E-01
    1      -11.532103   1.000000
    2      -10.951989   1.000000
    3      -10.182226   1.000000
    4       -9.355750   1.000000
    5       -8.737331   1.000000
    6       -8.644876   1.000000
    7       -8.253187   1.000000
    8       -8.077953   1.000000
    9       -7.944199   1.000000
   10       -7.843950   1.000000
   11       -7.763810   1.000000
   12       -7.725534   1.000000
   13       -7.664905   1.000000
   14       -7.655008   1.000000
   15       -7.446831   1.000000
   16       -7.344590   1.000000
   17       -7.330067   1.000000
   18       -7.272150   1.000000
   19       -7.142131   1.000000
   20       -6.991962   1.000000
   21       -6.901202   1.000000
   22       -6.777564   1.000000
   23       -6.130043   1.000000
   24       -6.090060   1.000000
   25       -6.026901   1.000000
   26       -5.958890   1.000000
   27       -5.901512   1.000000
   28       -5.890437   1.000000
   29       -5.619660   1.000000
   30       -5.521200   1.000000
   31       -5.170815   1.000000
   32       -4.714106   1.000000
   33       -4.597015   1.000000
   34       -4.586442   1.000000
   35       -4.323174   1.000000
   36       -4.253863   1.000000
   37       -4.153995   1.000000
   38       -3.612079   1.000000
   39       -3.240787   1.000000
   40       -3.103312   1.000000
   41       -3.015563   1.000000
   42       -2.927643   1.000000
   43       -2.665943   1.000000
   44       -2.599144   1.000000
   45       -2.541833   1.000000
   46       -2.443757   1.000000
   47       -2.407817   1.000000
   48       -2.231265   1.000000
   49       -2.222888   1.000000
   50       -2.203923   1.000000
   51       -2.029506   1.000000
   52       -1.950586   1.000000
   53       -1.899485   1.000000
   54       -1.835039   1.000000
   55       -1.811798   1.000000
   56       -1.781185   1.000000
   57       -1.713428   1.000000
   58       -1.692767   1.000000
   59       -1.646718   1.000000
   60       -1.641534   1.000000
   61       -1.435423   1.000000
   62       -1.271254   1.000000
   63       -1.247990   1.000000
   64       -1.187755   1.000000
   65       -1.131734   1.000000
   66       -1.089500   1.000000
   67       -1.065340   1.000000
   68       -0.840900   1.000000
   69       -0.789760   1.000000
   70       -0.761789   1.000000
   71       -0.661254   1.000000
   72       -0.622639   1.000000
   73       -0.591313   1.000000
   74       -0.577967   1.000000
   75       -0.381507   1.000000
   76       -0.256506   1.000000
   77       -0.077262   1.000000
   78       -0.069051   1.000000
   79       -0.068503   1.000000
   80        0.031873   1.000000
   81        0.375431   1.000000
   82        0.586078   1.000000
   83        0.595976   1.000000
   84        0.746903   1.000000
   85        0.774471   1.000000
   86        1.087886   1.000000
   87        1.193659   1.000000
   88        1.238027   1.000000
   89        1.317370   1.000000
   90        1.373437   1.000000
   91        1.437839   1.000000
   92        1.516525   1.000000
   93        1.530923   1.000000
   94        1.542537   1.000000
   95        1.610079   1.000000
   96        1.623904   1.000000
   97        1.981359   1.000002
   98        2.207637   1.001295
   99        2.393995   1.025700
  100        2.667008   0.647981
  101        2.754490   0.288405
  102        2.883938  -0.012541
  103        2.981853  -0.031907
  104        3.109355  -0.007157
  105        3.184835  -0.001706
  106        3.282093  -0.000164
  107        3.286205  -0.000147
  108        3.406936  -0.000004
  109        3.608231  -0.000000
  110        3.626163  -0.000000
  111        3.660298  -0.000000
  112        3.679053  -0.000000
  113        3.755524  -0.000000
  114        3.850892  -0.000000
  115        3.873992  -0.000000
  116        3.929385  -0.000000
  117        3.992341  -0.000000
  118        4.035287  -0.000000
  119        4.109141  -0.000000
  120        4.138349  -0.000000
  121        4.256811  -0.000000
  122        4.277031  -0.000000
  123        4.388169  -0.000000
  124        4.403961  -0.000000
  125        4.591280  -0.000000
  126        4.722938  -0.000000
  127        4.896324  -0.000000
  128        5.437928  -0.000000
  129        5.764517  -0.000000
  130        5.870082  -0.000000
  131        6.081548  -0.000000
  132        6.390656  -0.000000

  0.1111111E+00  0.3857958E-15  0.1262379E-14  0.2469136E-01
    1      -11.474708   1.000000
    2      -10.899198   1.000000
    3      -10.139963   1.000000
    4       -9.321189   1.000000
    5       -8.702259   1.000000
    6       -8.664493   1.000000
    7       -8.408795   1.000000
    8       -8.268139   1.000000
    9       -8.105281   1.000000
   10       -8.013843   1.000000
   11       -7.983302   1.000000
   12       -7.937685   1.000000
   13       -7.803004   1.000000
   14       -7.768081   1.000000
   15       -7.574090   1.000000
   16       -7.189952   1.000000
   17       -7.118753   1.000000
   18       -7.097456   1.000000
   19       -6.892620   1.000000
   20       -6.805228   1.000000
   21       -6.743493   1.000000
   22       -6.569545   1.000000
   23       -6.164881   1.000000
   24       -6.117599   1.000000
   25       -6.015054   1.000000
   26       -5.914523   1.000000
   27       -5.862215   1.000000
   28       -5.737394   1.000000
   29       -5.639242   1.000000
   30       -5.411721   1.000000
   31       -5.104139   1.000000
   32       -4.602136   1.000000
   33       -4.559392   1.000000
   34       -4.399180   1.000000
   35       -4.280842   1.000000
   36       -4.215605   1.000000
   37       -3.938302   1.000000
   38       -3.579658   1.000000
   39       -3.209848   1.000000
   40       -3.145062   1.000000
   41       -3.062024   1.000000
   42       -2.912544   1.000000
   43       -2.746258   1.000000
   44       -2.639449   1.000000
   45       -2.609430   1.000000
   46       -2.562799   1.000000
   47       -2.489894   1.000000
   48       -2.382201   1.000000
   49       -2.212893   1.000000
   50       -2.184310   1.000000
   51       -2.052038   1.000000
   52       -2.001909   1.000000
   53       -1.861087   1.000000
   54       -1.840603   1.000000
   55       -1.798479   1.000000
   56       -1.781262   1.000000
   57       -1.745005   1.000000
   58       -1.671253   1.000000
   59       -1.642403   1.000000
   60       -1.617052   1.000000
   61       -1.444823   1.000000
   62       -1.327982   1.000000
   63       -1.298191   1.000000
   64       -1.244669   1.000000
   65       -1.200563   1.000000
   66       -1.113988   1.000000
   67       -1.082137   1.000000
   68       -0.955242   1.000000
   69       -0.870444   1.000000
   70       -0.797339   1.000000
   71       -0.686304   1.000000
   72       -0.656741   1.000000
   73       -0.598464   1.000000
   74       -0.505231   1.000000
   75       -0.385673   1.000000
   76       -0.275222   1.000000
   77       -0.177409   1.000000
   78       -0.126053   1.000000
   79       -0.056114   1.000000
   80        0.072344   1.000000
   81        0.157152   1.000000
   82        0.337621   1.000000
   83        0.557542   1.000000
   84        0.683005   1.000000
   85        0.809590   1.000000
   86        0.932542   1.000000
   87        0.955846   1.000000
   88        1.171374   1.000000
   89        1.247755   1.000000
   90        1.356798   1.000000
   91        1.407216   1.000000
   92        1.439501   1.000000
   93        1.470169   1.000000
   94        1.500138   1.000000
   95        1.708820   1.000000
   96        1.778533   1.000000
   97        2.093415   1.000072
   98        2.440688   1.034473
   99        2.543032   0.989490
  100        2.633849   0.772722
  101        2.769764   0.232782
  102        2.832161   0.059681
  103        2.895628  -0.021123
  104        2.986187  -0.031098
  105        3.051855  -0.016578
  106        3.324358  -0.000050
  107        3.443783  -0.000001
  108        3.491405  -0.000000
  109        3.580111  -0.000000
  110        3.628244  -0.000000
  111        3.650879  -0.000000
  112        3.681579  -0.000000
  113        3.760755  -0.000000
  114        3.800971  -0.000000
  115        3.823920  -0.000000
  116        3.886165  -0.000000
  117        3.921263  -0.000000
  118        3.964654  -0.000000
  119        4.014518  -0.000000
  120        4.054199  -0.000000
  121        4.112491  -0.000000
  122        4.152151  -0.000000
  123        4.185380  -0.000000
  124        4.313578  -0.000000
  125        4.387110  -0.000000
  126        4.451156  -0.000000
  127        4.548171  -0.000000
  128        5.120367  -0.000000
  129        5.264531  -0.000000
  130        5.639007  -0.000000
  131        6.015593  -0.000000
  132        6.247881  -0.000000

  0.2222222E+00  0.3935346E-15  0.1262379E-14  0.2469136E-01
    1      -11.304663   1.000000
    2      -10.743171   1.000000
    3      -10.016202   1.000000
    4       -9.219839   1.000000
    5       -8.987522   1.000000
    6       -8.776565   1.000000
    7       -8.709571   1.000000
    8       -8.593655   1.000000
    9       -8.264291   1.000000
   10       -8.201678   1.000000
   11       -8.165565   1.000000
   12       -8.028016   1.000000
   13       -8.014519   1.000000
   14       -7.953673   1.000000
   15       -7.836150   1.000000
   16       -7.175050   1.000000
   17       -7.080134   1.000000
   18       -6.780749   1.000000
   19       -6.762009   1.000000
   20       -6.520387   1.000000
   21       -6.470690   1.000000
   22       -6.182836   1.000000
   23       -6.037445   1.000000
   24       -5.933145   1.000000
   25       -5.879606   1.000000
   26       -5.783745   1.000000
   27       -5.691837   1.000000
   28       -5.608504   1.000000
   29       -5.225108   1.000000
   30       -5.169872   1.000000
   31       -4.876340   1.000000
   32       -4.433685   1.000000
   33       -4.408395   1.000000
   34       -4.206243   1.000000
   35       -4.071296   1.000000
   36       -3.880661   1.000000
   37       -3.537869   1.000000
   38       -3.487485   1.000000
   39       -3.333854   1.000000
   40       -3.248379   1.000000
   41       -3.147977   1.000000
   42       -3.114483   1.000000
   43       -3.054859   1.000000
   44       -2.893135   1.000000
   45       -2.827669   1.000000
   46       -2.554336   1.000000
   47       -2.484107   1.000000
   48       -2.445784   1.000000
   49       -2.203191   1.000000
   50       -2.154976   1.000000
   51       -2.126826   1.000000
   52       -2.065210   1.000000
   53       -1.997839   1.000000
   54       -1.923645   1.000000
   55       -1.851027   1.000000
   56       -1.845713   1.000000
   57       -1.761543   1.000000
   58       -1.713451   1.000000
   59       -1.695771   1.000000
   60       -1.568180   1.000000
   61       -1.496682   1.000000
   62       -1.435692   1.000000
   63       -1.396027   1.000000
   64       -1.371086   1.000000
   65       -1.311391   1.000000
   66       -1.230128   1.000000
   67       -1.168001   1.000000
   68       -1.099760   1.000000
   69       -0.977000   1.000000
   70       -0.919875   1.000000
   71       -0.891148   1.000000
   72       -0.722746   1.000000
   73       -0.675108   1.000000
   74       -0.586843   1.000000
   75       -0.426606   1.000000
   76       -0.393464   1.000000
   77       -0.291364   1.000000
   78       -0.203189   1.000000
   79       -0.107362   1.000000
   80       -0.053623   1.000000
   81        0.110510   1.000000
   82        0.217684   1.000000
   83        0.404638   1.000000
   84        0.543380   1.000000
   85        0.677630   1.000000
   86        0.751962   1.000000
   87        0.880733   1.000000
   88        0.984245   1.000000
   89        1.034897   1.000000
   90        1.226530   1.000000
   91        1.288738   1.000000
   92        1.379162   1.000000
   93        1.409879   1.000000
   94        1.525369   1.000000
   95        1.747984   1.000000
   96        1.922050   1.000000
   97        2.005162   1.000005
   98        2.353712   1.016656
   99        2.430104   1.033052
  100        2.655223   0.694359
  101        2.790565   0.164711
  102        2.861553   0.011301
  103        3.031643  -0.020990
  104        3.118774  -0.006103
  105        3.194433  -0.001387
  106        3.337480  -0.000034
  107        3.371290  -0.000012
  108        3.418936  -0.000003
  109        3.447097  -0.000001
  110        3.476885  -0.000000
  111        3.511137  -0.000000
  112        3.637533  -0.000000
  113        3.689927  -0.000000
  114        3.750470  -0.000000
  115        3.780513  -0.000000
  116        3.826569  -0.000000
  117        3.851001  -0.000000
  118        3.881964  -0.000000
  119        3.922621  -0.000000
  120        3.993932  -0.000000
  121        4.032894  -0.000000
  122        4.078155  -0.000000
  123        4.117342  -0.000000
  124        4.243155  -0.000000
  125        4.302119  -0.000000
  126        4.346628  -0.000000
  127        4.393013  -0.000000
  128        4.506959  -0.000000
  129        4.791396  -0.000000
  130        4.900222  -0.000000
  131        5.903953  -0.000000
  132        6.325863  -0.000000

  0.3333333E+00  0.3939838E-15  0.1262379E-14  0.2469136E-01
    1      -11.029260   1.000000
    2      -10.491317   1.000000
    3       -9.820228   1.000000
    4       -9.591331   1.000000
    5       -9.239442   1.000000
    6       -9.058587   1.000000
    7       -8.961480   1.000000
    8       -8.422061   1.000000
    9       -8.368720   1.000000
   10       -8.330129   1.000000
   11       -8.322994   1.000000
   12       -8.174873   1.000000
   13       -8.148232   1.000000
   14       -8.080153   1.000000
   15       -7.992064   1.000000
   16       -7.448257   1.000000
   17       -7.249799   1.000000
   18       -6.605472   1.000000
   19       -6.548091   1.000000
   20       -6.294075   1.000000
   21       -6.065863   1.000000
   22       -6.028110   1.000000
   23       -5.875272   1.000000
   24       -5.824579   1.000000
   25       -5.806124   1.000000
   26       -5.580104   1.000000
   27       -5.112150   1.000000
   28       -4.952652   1.000000
   29       -4.847675   1.000000
   30       -4.661493   1.000000
   31       -4.510636   1.000000
   32       -4.212544   1.000000
   33       -4.136649   1.000000
   34       -4.074853   1.000000
   35       -3.852880   1.000000
   36       -3.738248   1.000000
   37       -3.645479   1.000000
   38       -3.585076   1.000000
   39       -3.578661   1.000000
   40       -3.474133   1.000000
   41       -3.417610   1.000000
   42       -3.324066   1.000000
   43       -3.093846   1.000000
   44       -2.866120   1.000000
   45       -2.724836   1.000000
   46       -2.680138   1.000000
   47       -2.531985   1.000000
   48       -2.451564   1.000000
   49       -2.386621   1.000000
   50       -2.304531   1.000000
   51       -2.203156   1.000000
   52       -2.155672   1.000000
   53       -2.084141   1.000000
   54       -2.049691   1.000000
   55       -1.992899   1.000000
   56       -1.947453   1.000000
   57       -1.893359   1.000000
   58       -1.799286   1.000000
   59       -1.776046   1.000000
   60       -1.710473   1.000000
   61       -1.613216   1.000000
   62       -1.551140   1.000000
   63       -1.480977   1.000000
   64       -1.421156   1.000000
   65       -1.407016   1.000000
   66       -1.337396   1.000000
   67       -1.251772   1.000000
   68       -1.169187   1.000000
   69       -1.116286   1.000000
   70       -1.079276   1.000000
   71       -0.973152   1.000000
   72       -0.838436   1.000000
   73       -0.724544   1.000000
   74       -0.656664   1.000000
   75       -0.548588   1.000000
   76       -0.495468   1.000000
   77       -0.399614   1.000000
   78       -0.319519   1.000000
   79       -0.227369   1.000000
   80       -0.036893   1.000000
   81       -0.011017   1.000000
   82        0.204865   1.000000
   83        0.287879   1.000000
   84        0.483050   1.000000
   85        0.665349   1.000000
   86        0.704345   1.000000
   87        0.800500   1.000000
   88        0.867630   1.000000
   89        1.048760   1.000000
   90        1.087836   1.000000
   91        1.208017   1.000000
   92        1.299065   1.000000
   93        1.373198   1.000000
   94        1.452508   1.000000
   95        1.618336   1.000000
   96        1.789815   1.000000
   97        2.126799   1.000181
   98        2.163887   1.000467
   99        2.261274   1.003878
  100        2.559325   0.965457
  101        2.689990   0.553231
  102        2.806308   0.119883
  103        2.893453  -0.019708
  104        2.975297  -0.033019
  105        3.073529  -0.012421
  106        3.133182  -0.004730
  107        3.249928  -0.000377
  108        3.286789  -0.000144
  109        3.343501  -0.000028
  110        3.419227  -0.000002
  111        3.488286  -0.000000
  112        3.525612  -0.000000
  113        3.580395  -0.000000
  114        3.652350  -0.000000
  115        3.698964  -0.000000
  116        3.782982  -0.000000
  117        3.873015  -0.000000
  118        3.910305  -0.000000
  119        3.925955  -0.000000
  120        3.996177  -0.000000
  121        4.055935  -0.000000
  122        4.142747  -0.000000
  123        4.209156  -0.000000
  124        4.241129  -0.000000
  125        4.291424  -0.000000
  126        4.339348  -0.000000
  127        4.476513  -0.000000
  128        4.563125  -0.000000
  129        4.672264  -0.000000
  130        4.806390  -0.000000
  131        4.875082  -0.000000
  132        5.685220  -0.000000

  0.4444444E+00  0.3881204E-15  0.1262379E-14  0.2469136E-01
    1      -10.674628   1.000000
    2      -10.164440   1.000000
    3      -10.113206   1.000000
    4       -9.699536   1.000000
    5       -9.568205   1.000000
    6       -9.259518   1.000000
    7       -8.852663   1.000000
    8       -8.461133   1.000000
    9       -8.412533   1.000000
   10       -8.408697   1.000000
   11       -8.389061   1.000000
   12       -8.225487   1.000000
   13       -8.157364   1.000000
   14       -8.136469   1.000000
   15       -7.986269   1.000000
   16       -7.824984   1.000000
   17       -7.289991   1.000000
   18       -6.561807   1.000000
   19       -6.441807   1.000000
   20       -6.315562   1.000000
   21       -5.895371   1.000000
   22       -5.756822   1.000000
   23       -5.695119   1.000000
   24       -5.647029   1.000000
   25       -5.576350   1.000000
   26       -5.467282   1.000000
   27       -4.596893   1.000000
   28       -4.472661   1.000000
   29       -4.297533   1.000000
   30       -4.227873   1.000000
   31       -4.185770   1.000000
   32       -4.100282   1.000000
   33       -4.040994   1.000000
   34       -3.979261   1.000000
   35       -3.905607   1.000000
   36       -3.867256   1.000000
   37       -3.814549   1.000000
   38       -3.763216   1.000000
   39       -3.698729   1.000000
   40       -3.572620   1.000000
   41       -3.533652   1.000000
   42       -3.458860   1.000000
   43       -3.331385   1.000000
   44       -3.241564   1.000000
   45       -2.809771   1.000000
   46       -2.714969   1.000000
   47       -2.555558   1.000000
   48       -2.525508   1.000000
   49       -2.451210   1.000000
   50       -2.362589   1.000000
   51       -2.288589   1.000000
   52       -2.166952   1.000000
   53       -2.119029   1.000000
   54       -2.084617   1.000000
   55       -2.035914   1.000000
   56       -1.993597   1.000000
   57       -1.953782   1.000000
   58       -1.906739   1.000000
   59       -1.849652   1.000000
   60       -1.767385   1.000000
   61       -1.673445   1.000000
   62       -1.599253   1.000000
   63       -1.532913   1.000000
   64       -1.499839   1.000000
   65       -1.460905   1.000000
   66       -1.380337   1.000000
   67       -1.356145   1.000000
   68       -1.182518   1.000000
   69       -1.134673   1.000000
   70       -1.089574   1.000000
   71       -1.019170   1.000000
   72       -0.961805   1.000000
   73       -0.723278   1.000000
   74       -0.668044   1.000000
   75       -0.619578   1.000000
   76       -0.573953   1.000000
   77       -0.517453   1.000000
   78       -0.392814   1.000000
   79       -0.309867   1.000000
   80       -0.128786   1.000000
   81        0.027700   1.000000
   82        0.105198   1.000000
   83        0.265682   1.000000
   84        0.526296   1.000000
   85        0.614243   1.000000
   86        0.712929   1.000000
   87        0.749556   1.000000
   88        0.882439   1.000000
   89        0.950414   1.000000
   90        1.074427   1.000000
   91        1.144907   1.000000
   92        1.267229   1.000000
   93        1.369319   1.000000
   94        1.473396   1.000000
   95        1.642731   1.000000
   96        1.797670   1.000000
   97        2.081268   1.000051
   98        2.205687   1.001240
   99        2.279458   1.005404
  100        2.306170   1.008466
  101        2.397589   1.026522
  102        2.617457   0.826609
  103        2.693623   0.537931
  104        2.828630   0.066909
  105        2.913157  -0.029774
  106        3.022587  -0.023068
  107        3.078700  -0.011534
  108        3.202738  -0.001154
  109        3.292675  -0.000123
  110        3.311110  -0.000073
  111        3.397078  -0.000005
  112        3.419153  -0.000002
  113        3.501408  -0.000000
  114        3.581176  -0.000000
  115        3.621308  -0.000000
  116        3.727550  -0.000000
  117        3.824245  -0.000000
  118        3.872377  -0.000000
  119        3.911568  -0.000000
  120        3.995150  -0.000000
  121        4.090733  -0.000000
  122        4.149127  -0.000000
  123        4.293988  -0.000000
  124        4.390303  -0.000000
  125        4.478605  -0.000000
  126        4.524876  -0.000000
  127        4.594834  -0.000000
  128        4.861698  -0.000000
  129        4.986040  -0.000000
  130        5.075682  -0.000000
  131        5.095823  -0.000000
  132        5.461689  -0.000000

  0.3742002E-15  0.1111111E+00  0.1262379E-14  0.2469136E-01
    1      -11.474707   1.000000
    2      -10.899198   1.000000
    3      -10.139964   1.000000
    4       -9.321182   1.000000
    5       -8.702255   1.000000
    6       -8.664508   1.000000
    7       -8.408840   1.000000
    8       -8.268123   1.000000
    9       -8.105232   1.000000
   10       -8.013873   1.000000
   11       -7.983316   1.000000
   12       -7.937651   1.000000
   13       -7.803037   1.000000
   14       -7.767941   1.000000
   15       -7.574308   1.000000
   16       -7.189942   1.000000
   17       -7.118592   1.000000
   18       -7.097507   1.000000
   19       -6.892650   1.000000
   20       -6.805243   1.000000
   21       -6.743283   1.000000
   22       -6.569550   1.000000
   23       -6.164923   1.000000
   24       -6.117530   1.000000
   25       -6.015171   1.000000
   26       -5.914513   1.000000
   27       -5.862139   1.000000
   28       -5.737637   1.000000
   29       -5.639227   1.000000
   30       -5.412158   1.000000
   31       -5.103836   1.000000
   32       -4.602248   1.000000
   33       -4.559424   1.000000
   34       -4.399046   1.000000
   35       -4.279834   1.000000
   36       -4.216098   1.000000
   37       -3.938603   1.000000
   38       -3.579652   1.000000
   39       -3.209936   1.000000
   40       -3.145023   1.000000
   41       -3.061797   1.000000
   42       -2.912586   1.000000
   43       -2.746288   1.000000
   44       -2.638581   1.000000
   45       -2.610400   1.000000
   46       -2.562950   1.000000
   47       -2.489998   1.000000
   48       -2.381739   1.000000
   49       -2.213425   1.000000
   50       -2.184312   1.000000
   51       -2.051438   1.000000
   52       -2.002338   1.000000
   53       -1.860434   1.000000
   54       -1.841520   1.000000
   55       -1.797635   1.000000
   56       -1.782040   1.000000
   57       -1.744772   1.000000
   58       -1.670395   1.000000
   59       -1.642740   1.000000
   60       -1.617297   1.000000
   61       -1.444825   1.000000
   62       -1.328025   1.000000
   63       -1.298089   1.000000
   64       -1.245308   1.000000
   65       -1.199315   1.000000
   66       -1.114523   1.000000
   67       -1.082651   1.000000
   68       -0.954514   1.000000
   69       -0.870660   1.000000
   70       -0.797317   1.000000
   71       -0.686229   1.000000
   72       -0.657084   1.000000
   73       -0.598377   1.000000
   74       -0.505873   1.000000
   75       -0.385290   1.000000
   76       -0.275430   1.000000
   77       -0.177971   1.000000
   78       -0.125249   1.000000
   79       -0.056393   1.000000
   80        0.072324   1.000000
   81        0.157471   1.000000
   82        0.337523   1.000000
   83        0.557212   1.000000
   84        0.683215   1.000000
   85        0.809866   1.000000
   86        0.932287   1.000000
   87        0.956013   1.000000
   88        1.171419   1.000000
   89        1.247430   1.000000
   90        1.358972   1.000000
   91        1.405632   1.000000
   92        1.439329   1.000000
   93        1.470052   1.000000
   94        1.500121   1.000000
   95        1.708937   1.000000
   96        1.778567   1.000000
   97        2.093143   1.000072
   98        2.441102   1.034518
   99        2.542334   0.990384
  100        2.634139   0.771717
  101        2.769880   0.232376
  102        2.833279   0.057457
  103        2.894071  -0.020119
  104        2.984986  -0.031327
  105        3.053685  -0.016201
  106        3.324240  -0.000050
  107        3.444171  -0.000001
  108        3.491194  -0.000000
  109        3.580190  -0.000000
  110        3.628036  -0.000000
  111        3.650642  -0.000000
  112        3.681866  -0.000000
  113        3.760059  -0.000000
  114        3.802647  -0.000000
  115        3.834545  -0.000000
  116        3.886635  -0.000000
  117        3.928710  -0.000000
  118        3.948437  -0.000000
  119        4.016790  -0.000000
  120        4.039658  -0.000000
  121        4.071353  -0.000000
  122        4.142266  -0.000000
  123        4.208531  -0.000000
  124        4.325507  -0.000000
  125        4.372576  -0.000000
  126        4.486929  -0.000000
  127        4.718478  -0.000000
  128        4.929794  -0.000000
  129        5.628601  -0.000000
  130        5.978551  -0.000000
  131        6.245193  -0.000000
  132        6.404751  -0.000000

  0.1111111E+00  0.1111111E+00  0.1262379E-14  0.2469136E-01
    1      -11.360326   1.000000
    2      -10.794200   1.000000
    3      -10.055726   1.000000
    4       -9.252863   1.000000
    5       -8.732768   1.000000
    6       -8.699919   1.000000
    7       -8.630040   1.000000
    8       -8.528773   1.000000
    9       -8.482129   1.000000
   10       -8.288925   1.000000
   11       -8.242838   1.000000
   12       -7.994535   1.000000
   13       -7.813032   1.000000
   14       -7.784491   1.000000
   15       -7.394890   1.000000
   16       -7.373591   1.000000
   17       -7.133220   1.000000
   18       -6.926840   1.000000
   19       -6.853706   1.000000
   20       -6.741682   1.000000
   21       -6.306313   1.000000
   22       -6.193976   1.000000
   23       -6.137260   1.000000
   24       -5.982936   1.000000
   25       -5.862953   1.000000
   26       -5.842574   1.000000
   27       -5.671095   1.000000
   28       -5.621390   1.000000
   29       -5.412747   1.000000
   30       -5.386027   1.000000
   31       -5.065632   1.000000
   32       -4.698593   1.000000
   33       -4.215905   1.000000
   34       -4.150025   1.000000
   35       -4.115863   1.000000
   36       -4.036579   1.000000
   37       -3.661276   1.000000
   38       -3.526684   1.000000
   39       -3.315986   1.000000
   40       -3.256022   1.000000
   41       -3.146490   1.000000
   42       -3.085443   1.000000
   43       -2.849915   1.000000
   44       -2.831682   1.000000
   45       -2.640591   1.000000
   46       -2.554288   1.000000
   47       -2.437451   1.000000
   48       -2.393138   1.000000
   49       -2.275408   1.000000
   50       -2.240031   1.000000
   51       -2.067301   1.000000
   52       -2.036273   1.000000
   53       -2.025000   1.000000
   54       -1.816888   1.000000
   55       -1.814885   1.000000
   56       -1.773069   1.000000
   57       -1.759197   1.000000
   58       -1.742772   1.000000
   59       -1.691318   1.000000
   60       -1.547910   1.000000
   61       -1.545039   1.000000
   62       -1.372675   1.000000
   63       -1.370723   1.000000
   64       -1.321097   1.000000
   65       -1.254698   1.000000
   66       -1.187186   1.000000
   67       -1.127077   1.000000
   68       -1.052219   1.000000
   69       -1.007798   1.000000
   70       -0.891199   1.000000
   71       -0.752827   1.000000
   72       -0.691885   1.000000
   73       -0.648849   1.000000
   74       -0.627508   1.000000
   75       -0.512745   1.000000
   76       -0.354125   1.000000
   77       -0.265210   1.000000
   78       -0.163937   1.000000
   79       -0.074168   1.000000
   80        0.074647   1.000000
   81        0.089163   1.000000
   82        0.249966   1.000000
   83        0.391876   1.000000
   84        0.564648   1.000000
   85        0.593730   1.000000
   86        0.783848   1.000000
   87        0.927578   1.000000
   88        1.060018   1.000000
   89        1.254341   1.000000
   90        1.303512   1.000000
   91        1.351147   1.000000
   92        1.358644   1.000000
   93        1.420848   1.000000
   94        1.468948   1.000000
   95        1.602816   1.000000
   96        1.893828   1.000000
   97        2.137125   1.000237
   98        2.406660   1.028547