   49   49    1    1
  0.2411350E+02  0.8645320E-09  0.6085000E-09  0.2593596E-08  0.5000000E-15
   1.0000000000000000E-004
  CAR 
 Name                                    
    189    149    120

  0.3742002E-15  0.3742002E-15  0.3742002E-15  0.3367003E-02
    1      -14.009731   1.000000
    2      -12.608857   1.000000
    3      -12.525531   1.000000
    4      -11.976313   1.000000
    5      -11.544246   1.000000
    6      -11.245014   1.000000
    7      -11.205271   1.000000
    8      -11.167765   1.000000
    9      -11.019766   1.000000
   10      -10.722095   1.000000
   11      -10.721284   1.000000
   12      -10.364160   1.000000
   13      -10.165625   1.000000
   14      -10.156165   1.000000
   15       -9.796396   1.000000
   16       -9.773769   1.000000
   17       -9.197074   1.000000
   18       -8.877908   1.000000
   19       -8.861622   1.000000
   20       -8.723896   1.000000
   21       -8.564319   1.000000
   22       -8.300809   1.000000
   23       -8.217605   1.000000
   24       -8.098019   1.000000
   25       -8.042962   1.000000
   26       -8.008093   1.000000
   27       -7.348348   1.000000
   28       -7.235062   1.000000
   29       -6.776947   1.000000
   30       -6.560506   1.000000
   31       -6.499632   1.000000
   32       -6.297717   1.000000
   33       -6.047960   1.000000
   34       -5.731015   1.000000
   35       -5.653819   1.000000
   36       -5.602095   1.000000
   37       -5.535491   1.000000
   38       -5.518408   1.000000
   39       -5.373395   1.000000
   40       -5.263685   1.000000
   41       -5.171322   1.000000
   42       -5.132168   1.000000
   43       -5.080304   1.000000
   44       -4.882974   1.000000
   45       -4.836243   1.000000
   46       -4.791664   1.000000
   47       -4.686825   1.000000
   48       -4.635344   1.000000
   49       -4.613602   1.000000
   50       -4.584493   1.000000
   51       -4.537705   1.000000
   52       -4.442438   1.000000
   53       -4.402962   1.000000
   54       -4.250295   1.000000
   55       -4.121384   1.000000
   56       -4.084934   1.000000
   57       -4.083409   1.000000
   58       -4.018426   1.000000
   59       -3.950535   1.000000
   60       -3.839593   1.000000
   61       -3.634103   1.000000
   62       -3.473110   1.000000
   63       -3.446071   1.000000
   64       -3.435284   1.000000
   65       -3.386017   1.000000
   66       -3.348864   1.000000
   67       -3.301464   1.000000
   68       -3.273617   1.000000
   69       -3.270516   1.000000
   70       -3.129460   1.000000
   71       -3.075886   1.000000
   72       -2.735321   1.000000
   73       -2.670942   1.000000
   74       -2.488502   1.000000
   75       -2.437851   1.000000
   76       -2.340071   1.000000
   77       -2.295596   1.000000
   78       -2.263086   1.000000
   79       -2.198718   1.000000
   80       -2.106410   1.000000
   81       -1.780716   1.000000
   82       -1.580615   1.000000
   83       -1.292094   1.000000
   84       -1.195769   1.000000
   85       -1.141326   1.000000
   86       -1.057422   1.000000
   87       -0.986369   1.000000
   88       -0.903990   1.000000
   89       -0.576912   1.000000
   90       -0.376474   1.000000
   91       -0.348144   1.000000
   92       -0.037454   1.007440
   93        0.021217   0.735446
   94        0.050117   0.502112
   95        0.201691  -0.027057
   96        0.229384  -0.014812
   97        0.242394  -0.010255
   98        0.512582  -0.000000
   99        0.551008  -0.000000
  100        0.607097  -0.000000
  101        0.698960  -0.000000
  102        0.775034  -0.000000
  103        0.793646  -0.000000
  104        0.827771  -0.000000
  105        0.886775  -0.000000
  106        1.122904  -0.000000
  107        1.247630  -0.000000
  108        1.294456  -0.000000
  109        1.312362  -0.000000
  110        1.430691  -0.000000
  111        1.440923  -0.000000
  112        1.463167  -0.000000
  113        1.520737  -0.000000
  114        1.589763  -0.000000
  115        1.651659  -0.000000
  116        1.736665  -0.000000
  117        1.831513  -0.000000
  118        1.912664  -0.000000
  119        1.966481  -0.000000
  120        2.420149  -0.000000

  0.1111111E+00  0.3729374E-15  0.3860503E-15  0.6734007E-02
    1      -13.982767   1.000000
    2      -12.640371   1.000000
    3      -12.583022   1.000000
    4      -11.919949   1.000000
    5      -11.530299   1.000000
    6      -11.234163   1.000000
    7      -11.201015   1.000000
    8      -11.160009   1.000000
    9      -11.057236   1.000000
   10      -10.718079   1.000000
   11      -10.717805   1.000000
   12      -10.379606   1.000000
   13      -10.163178   1.000000
   14      -10.156088   1.000000
   15       -9.781397   1.000000
   16       -9.758645   1.000000
   17       -9.176404   1.000000
   18       -8.880529   1.000000
   19       -8.862004   1.000000
   20       -8.716566   1.000000
   21       -8.575514   1.000000
   22       -8.352258   1.000000
   23       -8.272348   1.000000
   24       -8.110774   1.000000
   25       -8.045818   1.000000
   26       -8.003623   1.000000
   27       -7.456601   1.000000
   28       -7.230542   1.000000
   29       -6.701812   1.000000
   30       -6.528542   1.000000
   31       -6.466803   1.000000
   32       -6.241978   1.000000
   33       -6.019080   1.000000
   34       -5.825641   1.000000
   35       -5.654881   1.000000
   36       -5.623530   1.000000
   37       -5.475676   1.000000
   38       -5.443893   1.000000
   39       -5.396851   1.000000
   40       -5.310463   1.000000
   41       -5.169095   1.000000
   42       -5.077319   1.000000
   43       -5.051312   1.000000
   44       -4.842850   1.000000
   45       -4.821787   1.000000
   46       -4.773296   1.000000
   47       -4.687657   1.000000
   48       -4.650965   1.000000
   49       -4.589981   1.000000
   50       -4.562142   1.000000
   51       -4.531743   1.000000
   52       -4.441202   1.000000
   53       -4.376504   1.000000
   54       -4.246005   1.000000
   55       -4.128294   1.000000
   56       -4.111136   1.000000
   57       -4.092003   1.000000
   58       -4.023576   1.000000
   59       -3.955566   1.000000
   60       -3.828679   1.000000
   61       -3.657476   1.000000
   62       -3.490618   1.000000
   63       -3.437308   1.000000
   64       -3.420988   1.000000
   65       -3.380616   1.000000
   66       -3.349456   1.000000
   67       -3.304711   1.000000
   68       -3.280128   1.000000
   69       -3.237969   1.000000
   70       -3.133665   1.000000
   71       -3.100970   1.000000
   72       -2.809982   1.000000
   73       -2.650798   1.000000
   74       -2.489513   1.000000
   75       -2.442281   1.000000
   76       -2.360842   1.000000
   77       -2.350789   1.000000
   78       -2.272970   1.000000
   79       -2.237565   1.000000
   80       -2.125944   1.000000
   81       -1.677526   1.000000
   82       -1.627631   1.000000
   83       -1.315346   1.000000
   84       -1.240247   1.000000
   85       -1.110292   1.000000
   86       -1.032055   1.000000
   87       -0.957597   1.000000
   88       -0.804353   1.000000
   89       -0.613751   1.000000
   90       -0.446670   1.000000
   91       -0.398782   1.000000
   92       -0.032321   0.996607
   93        0.072719   0.315977
   94        0.110978   0.077259
   95        0.163924  -0.034079
   96        0.198979  -0.028266
   97        0.225143  -0.016517
   98        0.537869  -0.000000
   99        0.554384  -0.000000
  100        0.590333  -0.000000
  101        0.717594  -0.000000
  102        0.797464  -0.000000
  103        0.809009  -0.000000
  104        0.845009  -0.000000
  105        0.910289  -0.000000
  106        1.128705  -0.000000
  107        1.247965  -0.000000
  108        1.275639  -0.000000
  109        1.342363  -0.000000
  110        1.424938  -0.000000
  111        1.459399  -0.000000
  112        1.502356  -0.000000
  113        1.542811  -0.000000
  114        1.611911  -0.000000
  115        1.679532  -0.000000
  116        1.727893  -0.000000
  117        1.840047  -0.000000
  118        1.929434  -0.000000
  119        2.195121  -0.000000
  120        3.529604   0.000000

  0.2222222E+00  0.3922785E-15  0.3630220E-15  0.6734007E-02
    1      -13.902651   1.000000
    2      -12.873251   1.000000
    3      -12.512394   1.000000
    4      -11.872237   1.000000
    5      -11.491088   1.000000
    6      -11.233991   1.000000
    7      -11.179727   1.000000
    8      -11.141278   1.000000
    9      -11.095482   1.000000
   10      -10.706765   1.000000
   11      -10.705732   1.000000
   12      -10.449050   1.000000
   13      -10.161722   1.000000
   14      -10.158783   1.000000
   15       -9.735401   1.000000
   16       -9.711159   1.000000
   17       -9.122460   1.000000
   18       -8.871790   1.000000
   19       -8.851874   1.000000
   20       -8.701000   1.000000
   21       -8.620980   1.000000
   22       -8.483224   1.000000
   23       -8.388571   1.000000
   24       -8.191099   1.000000
   25       -8.132206   1.000000
   26       -7.849815   1.000000
   27       -7.683346   1.000000
   28       -7.199754   1.000000
   29       -6.575952   1.000000
   30       -6.463597   1.000000
   31       -6.377475   1.000000
   32       -6.221382   1.000000
   33       -6.022251   1.000000
   34       -5.934065   1.000000
   35       -5.604196   1.000000
   36       -5.583526   1.000000
   37       -5.498376   1.000000
   38       -5.332940   1.000000
   39       -5.307980   1.000000
   40       -5.263263   1.000000
   41       -5.134147   1.000000
   42       -5.041926   1.000000
   43       -4.971000   1.000000
   44       -4.959056   1.000000
   45       -4.820451   1.000000
   46       -4.695967   1.000000
   47       -4.657442   1.000000
   48       -4.613790   1.000000
   49       -4.542266   1.000000
   50       -4.518171   1.000000
   51       -4.505501   1.000000
   52       -4.402513   1.000000
   53       -4.324326   1.000000
   54       -4.241558   1.000000
   55       -4.179903   1.000000
   56       -4.129654   1.000000
   57       -4.109685   1.000000
   58       -3.995813   1.000000
   59       -3.956077   1.000000
   60       -3.822446   1.000000
   61       -3.717246   1.000000
   62       -3.539698   1.000000
   63       -3.468481   1.000000
   64       -3.415690   1.000000
   65       -3.377118   1.000000
   66       -3.347890   1.000000
   67       -3.295655   1.000000
   68       -3.254370   1.000000
   69       -3.225889   1.000000
   70       -3.176934   1.000000
   71       -3.029072   1.000000
   72       -2.943704   1.000000
   73       -2.609044   1.000000
   74       -2.544491   1.000000
   75       -2.515349   1.000000
   76       -2.463636   1.000000
   77       -2.447889   1.000000
   78       -2.356659   1.000000
   79       -2.258925   1.000000
   80       -2.062885   1.000000
   81       -1.780227   1.000000
   82       -1.451152   1.000000
   83       -1.369039   1.000000
   84       -1.329783   1.000000
   85       -1.034880   1.000000
   86       -0.973928   1.000000
   87       -0.873259   1.000000
   88       -0.732617   1.000000
   89       -0.589509   1.000000
   90       -0.557936   1.000000
   91       -0.495198   1.000000
   92       -0.090643   1.031397
   93        0.085288   0.223502
   94        0.104061   0.110290
   95        0.161902  -0.033328
   96        0.225747  -0.016268
   97        0.393816  -0.000007
   98        0.480178  -0.000000
   99        0.524482  -0.000000
  100        0.553926  -0.000000
  101        0.721170  -0.000000
  102        0.858479  -0.000000
  103        0.874712  -0.000000
  104        0.903943  -0.000000
  105        0.978767  -0.000000
  106        1.185778  -0.000000
  107        1.202761  -0.000000
  108        1.301921  -0.000000
  109        1.388850  -0.000000
  110        1.443825  -0.000000
  111        1.459122  -0.000000
  112        1.560559  -0.000000
  113        1.590970  -0.000000
  114        1.624343  -0.000000
  115        1.653881  -0.000000
  116        1.725166  -0.000000
  117        1.768834  -0.000000
  118        1.912422  -0.000000
  119        2.017202  -0.000000
  120        2.114150  -0.000000

  0.3333333E+00  0.3713828E-15  0.3468587E-15  0.6734007E-02
    1      -13.771794   1.000000
    2      -13.131134   1.000000
    3      -12.398329   1.000000
    4      -11.936101   1.000000
    5      -11.435968   1.000000
    6      -11.255567   1.000000
    7      -11.156157   1.000000
    8      -11.139286   1.000000
    9      -11.027227   1.000000
   10      -10.690727   1.000000
   11      -10.687986   1.000000
   12      -10.575891   1.000000
   13      -10.169895   1.000000
   14      -10.167625   1.000000
   15       -9.664426   1.000000
   16       -9.635565   1.000000
   17       -9.076748   1.000000
   18       -8.868972   1.000000
   19       -8.810901   1.000000
   20       -8.700802   1.000000
   21       -8.681856   1.000000
   22       -8.596292   1.000000
   23       -8.482789   1.000000
   24       -8.288661   1.000000
   25       -8.234693   1.000000
   26       -7.951091   1.000000
   27       -7.607533   1.000000
   28       -7.107407   1.000000
   29       -6.567474   1.000000
   30       -6.482521   1.000000
   31       -6.409692   1.000000
   32       -6.304543   1.000000
   33       -5.952187   1.000000
   34       -5.806163   1.000000
   35       -5.589916   1.000000
   36       -5.471507   1.000000
   37       -5.437943   1.000000
   38       -5.268778   1.000000
   39       -5.248084   1.000000
   40       -5.168784   1.000000
   41       -5.151167   1.000000
   42       -5.036192   1.000000
   43       -5.016267   1.000000
   44       -4.880170   1.000000
   45       -4.813222   1.000000
   46       -4.677437   1.000000
   47       -4.637383   1.000000
   48       -4.587207   1.000000
   49       -4.493070   1.000000
   50       -4.469554   1.000000
   51       -4.453554   1.000000
   52       -4.355416   1.000000
   53       -4.292980   1.000000
   54       -4.235955   1.000000
   55       -4.183714   1.000000
   56       -4.148392   1.000000
   57       -4.049206   1.000000
   58       -3.992070   1.000000
   59       -3.923602   1.000000
   60       -3.868712   1.000000
   61       -3.722535   1.000000
   62       -3.641849   1.000000
   63       -3.489162   1.000000
   64       -3.476294   1.000000
   65       -3.413493   1.000000
   66       -3.355640   1.000000
   67       -3.327402   1.000000
   68       -3.253107   1.000000
   69       -3.221780   1.000000
   70       -3.069602   1.000000
   71       -2.982892   1.000000
   72       -2.921959   1.000000
   73       -2.740880   1.000000
   74       -2.717045   1.000000
   75       -2.590701   1.000000
   76       -2.554363   1.000000
   77       -2.450717   1.000000
   78       -2.400998   1.000000
   79       -2.324881   1.000000
   80       -1.987974   1.000000
   81       -1.856292   1.000000
   82       -1.523072   1.000000
   83       -1.433494   1.000000
   84       -1.165374   1.000000
   85       -0.978026   1.000000
   86       -0.876723   1.000000
   87       -0.849809   1.000000
   88       -0.782671   1.000000
   89       -0.719088   1.000000
   90       -0.558953   1.000000
   91       -0.297781   1.000005
   92       -0.251740   1.000083
   93        0.078374   0.272975
   94        0.119921   0.041692
   95        0.169651  -0.035294
   96        0.314705  -0.000596
   97        0.353310  -0.000079
   98        0.406778  -0.000003
   99        0.472653  -0.000000
  100        0.659821  -0.000000
  101        0.877012  -0.000000
  102        0.892542  -0.000000
  103        0.932160  -0.000000
  104        0.964476  -0.000000
  105        1.024955  -0.000000
  106        1.078534  -0.000000
  107        1.349588  -0.000000
  108        1.385911  -0.000000
  109        1.413748  -0.000000
  110        1.441653  -0.000000
  111        1.506013  -0.000000
  112        1.560078  -0.000000
  113        1.597315  -0.000000
  114        1.605137  -0.000000
  115        1.685651  -0.000000
  116        1.767603  -0.000000
  117        1.862916  -0.000000
  118        1.926998  -0.000000
  119        2.017786  -0.000000
  120        2.615384  -0.000000

  0.4444444E+00  0.3870091E-15  0.3932070E-15  0.6734007E-02
    1      -13.594550   1.000000
    2      -13.377267   1.000000
    3      -12.251550   1.000000
    4      -12.080475   1.000000
    5      -11.388015   1.000000
    6      -11.271367   1.000000
    7      -11.143244   1.000000
    8      -11.137122   1.000000
    9      -10.914554   1.000000
   10      -10.722989   1.000000
   11      -10.675008   1.000000
   12      -10.673218   1.000000
   13      -10.181513   1.000000
   14      -10.177316   1.000000
   15       -9.601339   1.000000
   16       -9.566010   1.000000
   17       -9.060606   1.000000
   18       -8.914769   1.000000
   19       -8.833080   1.000000
   20       -8.719289   1.000000
   21       -8.691973   1.000000
   22       -8.566787   1.000000
   23       -8.475194   1.000000
   24       -8.350263   1.000000
   25       -8.302262   1.000000
   26       -8.204278   1.000000
   27       -7.308027   1.000000
   28       -7.031683   1.000000
   29       -6.886914   1.000000
   30       -6.465611   1.000000
   31       -6.396145   1.000000
   32       -6.352148   1.000000
   33       -5.826953   1.000000
   34       -5.639154   1.000000
   35       -5.524159   1.000000
   36       -5.451433   1.000000
   37       -5.375178   1.000000
   38       -5.333687   1.000000
   39       -5.275375   1.000000
   40       -5.193858   1.000000
   41       -5.187327   1.000000
   42       -4.978735   1.000000
   43       -4.885129   1.000000
   44       -4.834916   1.000000
   45       -4.735101   1.000000
   46       -4.704127   1.000000
   47       -4.651638   1.000000
   48       -4.587413   1.000000
   49       -4.524023   1.000000
   50       -4.416512   1.000000
   51       -4.397929   1.000000
   52       -4.335416   1.000000
   53       -4.322601   1.000000
   54       -4.252530   1.000000
   55       -4.134656   1.000000
   56       -4.099117   1.000000
   57       -4.030456   1.000000
   58       -3.974225   1.000000
   59       -3.881059   1.000000
   60       -3.857031   1.000000
   61       -3.767805   1.000000
   62       -3.702018   1.000000
   63       -3.603159   1.000000
   64       -3.471235   1.000000
   65       -3.462333   1.000000
   66       -3.327054   1.000000
   67       -3.299898   1.000000
   68       -3.249612   1.000000
   69       -3.211882   1.000000
   70       -3.014777   1.000000
   71       -2.988650   1.000000
   72       -2.888229   1.000000
   73       -2.861125   1.000000
   74       -2.767071   1.000000
   75       -2.687048   1.000000
   76       -2.643476   1.000000
   77       -2.474298   1.000000
   78       -2.357733   1.000000
   79       -2.318206   1.000000
   80       -2.149145   1.000000
   81       -1.728173   1.000000
   82       -1.622212   1.000000
   83       -1.397848   1.000000
   84       -1.195008   1.000000
   85       -1.013183   1.000000
   86       -0.884685   1.000000
   87       -0.811135   1.000000
   88       -0.761557   1.000000
   89       -0.585895   1.000000
   90       -0.507413   1.000000
   91       -0.439233   1.000000
   92       -0.173567   1.003424
   93        0.050722   0.496989
   94        0.138892  -0.008760
   95        0.169093  -0.035230
   96        0.267943  -0.004351
   97        0.300573  -0.001147
   98        0.394394  -0.000006
   99        0.602868  -0.000000
  100        0.639669  -0.000000
  101        0.816205  -0.000000
  102        0.921163  -0.000000
  103        0.936162  -0.000000
  104        0.987575  -0.000000
  105        1.203595  -0.000000
  106        1.255310  -0.000000
  107        1.327420  -0.000000
  108        1.441827  -0.000000
  109        1.467305  -0.000000
  110        1.528505  -0.000000
  111        1.547715  -0.000000
  112        1.582951  -0.000000
  113        1.605904  -0.000000
  114        1.666581  -0.000000
  115        1.682277  -0.000000
  116        1.831598  -0.000000
  117        1.866377  -0.000000
  118        1.957788  -0.000000
  119        2.059137  -0.000000
  120        2.325084  -0.000000

  0.3742002E-15  0.9090909E-01  0.3596334E-15  0.6734007E-02
    1      -13.976622   1.000000
    2      -12.580077   1.000000
    3      -12.529781   1.000000
    4      -11.944554   1.000000
    5      -11.526281   1.000000
    6      -11.385865   1.000000
    7      -11.335319   1.000000
    8      -11.194042   1.000000
    9      -11.022967   1.000000
   10      -10.721558   1.000000
   11      -10.693887   1.000000
   12      -10.342644   1.000000
   13      -10.124521   1.000000
   14      -10.109640   1.000000
   15       -9.802493   1.000000
   16       -9.753188   1.000000
   17       -9.210852   1.000000
   18       -8.969986   1.000000
   19       -8.935041   1.000000
   20       -8.724536   1.000000
   21       -8.587091   1.000000
   22       -8.184890   1.000000
   23       -8.029287   1.000000
   24       -7.997300   1.000000
   25       -7.933110   1.000000
   26       -7.890760   1.000000
   27       -7.404995   1.000000
   28       -7.207483   1.000000
   29       -6.744078   1.000000
   30       -6.587627   1.000000
   31       -6.487972   1.000000
   32       -6.276194   1.000000
   33       -6.067621   1.000000
   34       -5.757425   1.000000
   35       -5.695925   1.000000
   36       -5.613814   1.000000
   37       -5.479274   1.000000
   38       -5.444898   1.000000
   39       -5.406464   1.000000
   40       -5.293018   1.000000
   41       -5.203040   1.000000
   42       -5.168496   1.000000
   43       -5.084324   1.000000
   44       -5.000188   1.000000
   45       -4.850215   1.000000
   46       -4.815251   1.000000
   47       -4.754725   1.000000
   48       -4.665392   1.000000
   49       -4.614384   1.000000
   50       -4.580417   1.000000
   51       -4.532148   1.000000
   52       -4.458652   1.000000
   53       -4.413277   1.000000
   54       -4.361885   1.000000
   55       -4.176459   1.000000
   56       -4.092162   1.000000
   57       -4.037530   1.000000
   58       -3.961585   1.000000
   59       -3.934892   1.000000
   60       -3.831308   1.000000
   61       -3.634836   1.000000
   62       -3.502887   1.000000
   63       -3.478248   1.000000
   64       -3.454025   1.000000
   65       -3.375806   1.000000
   66       -3.359403   1.000000
   67       -3.295921   1.000000
   68       -3.276519   1.000000
   69       -3.221692   1.000000
   70       -3.125547   1.000000
   71       -3.075422   1.000000
   72       -2.859419   1.000000
   73       -2.664078   1.000000
   74       -2.446119   1.000000
   75       -2.392891   1.000000
   76       -2.338390   1.000000
   77       -2.316522   1.000000
   78       -2.270644   1.000000
   79       -2.180541   1.000000
   80       -2.079186   1.000000
   81       -1.805480   1.000000
   82       -1.516762   1.000000
   83       -1.329983   1.000000
   84       -1.243747   1.000000
   85       -1.187771   1.000000
   86       -1.085690   1.000000
   87       -1.003839   1.000000
   88       -0.961506   1.000000
   89       -0.550577   1.000000
   90       -0.471735   1.000000
   91       -0.304303   1.000003
   92       -0.164653   1.004777
   93       -0.078711   1.034845
   94       -0.029918   0.990771
   95        0.164533  -0.034270
   96        0.221726  -0.017959
   97        0.254224  -0.007044
   98        0.414977  -0.000002
   99        0.454341  -0.000000
  100        0.560581  -0.000000
  101        0.787529  -0.000000
  102        0.850334  -0.000000
  103        0.858292  -0.000000
  104        0.933406  -0.000000
  105        1.052599  -0.000000
  106        1.095507  -0.000000
  107        1.178711  -0.000000
  108        1.308609  -0.000000
  109        1.328263  -0.000000
  110        1.416272  -0.000000
  111        1.430028  -0.000000
  112        1.502970  -0.000000
  113        1.547284  -0.000000
  114        1.612176  -0.000000
  115        1.674655  -0.000000
  116        1.737315  -0.000000
  117        1.806614  -0.000000
  118        1.926666  -0.000000
  119        2.056691  -0.000000
  120        3.682896   0.000000

  0.1111111E+00  0.9090909E-01  0.4822234E-15  0.6734007E-02
    1      -13.927906   1.000000
    2      -12.708617   1.000000
    3      -12.535169   1.000000
    4      -11.872757   1.000000
    5      -11.501713   1.000000
    6      -11.429232   1.000000
    7      -11.282981   1.000000
    8      -11.168457   1.000000
    9      -11.080299   1.000000
   10      -10.727845   1.000000
   11      -10.628660   1.000000
   12      -10.379081   1.000000
   13      -10.178917   1.000000
   14      -10.128550   1.000000
   15       -9.753130   1.000000
   16       -9.699205   1.000000
   17       -9.202232   1.000000
   18       -8.958003   1.000000
   19       -8.912201   1.000000
   20       -8.769656   1.000000
   21       -8.624331   1.000000
   22       -8.275244   1.000000
   23       -8.093824   1.000000
   24       -7.972461   1.000000
   25       -7.928766   1.000000
   26       -7.893430   1.000000
   27       -7.559862   1.000000
   28       -7.204368   1.000000
   29       -6.691406   1.000000
   30       -6.527879   1.000000
   31       -6.390320   1.000000
   32       -6.194387   1.000000
   33       -6.062098   1.000000
   34       -5.884686   1.000000
   35       -5.724564   1.000000
   36       -5.523430   1.000000
   37       -5.475930   1.000000
   38       -5.399394   1.000000
   39       -5.377146   1.000000
   40       -5.334661   1.000000
   41       -5.158660   1.000000
   42       -5.117994   1.000000
   43       -5.084622   1.000000
   44       -4.962982   1.000000
   45       -4.819861   1.000000
   46       -4.768601   1.000000
   47       -4.702308   1.000000
   48       -4.653194   1.000000
   49       -4.569911   1.000000
   50       -4.547936   1.000000
   51       -4.529509   1.000000
   52       -4.455397   1.000000
   53       -4.404001   1.000000
   54       -4.348717   1.000000
   55       -4.180793   1.000000
   56       -4.146074   1.000000
   57       -4.041426   1.000000
   58       -3.960014   1.000000
   59       -3.940203   1.000000
   60       -3.810581   1.000000
   61       -3.667935   1.000000
   62       -3.531754   1.000000
   63       -3.505719   1.000000
   64       -3.444917   1.000000
   65       -3.384635   1.000000
   66       -3.371173   1.000000
   67       -3.267584   1.000000
   68       -3.263894   1.000000
   69       -3.224035   1.000000
   70       -3.136320   1.000000
   71       -3.072985   1.000000
   72       -2.925885   1.000000
   73       -2.634273   1.000000
   74       -2.493210   1.000000
   75       -2.451614   1.000000
   76       -2.424776   1.000000
   77       -2.384071   1.000000
   78       -2.296151   1.000000
   79       -2.170645   1.000000
   80       -2.073056   1.000000
   81       -1.808217   1.000000
   82       -1.482861   1.000000
   83       -1.405093   1.000000
   84       -1.325721   1.000000
   85       -1.146034   1.000000
   86       -1.072610   1.000000
   87       -0.861712   1.000000
   88       -0.793677   1.000000
   89       -0.604129   1.000000
   90       -0.568085   1.000000
   91       -0.363479   1.000000
   92       -0.097121   1.028756
   93       -0.071962   1.035458
   94        0.106998   0.095673
   95        0.136190  -0.003483
   96        0.191365  -0.031401
   97        0.224121  -0.016942
   98        0.345896  -0.000120
   99        0.410842  -0.000002
  100        0.712300  -0.000000
  101        0.765331  -0.000000
  102        0.835927  -0.000000
  103        0.911457  -0.000000
  104        0.950838  -0.000000
  105        1.043067  -0.000000
  106        1.099170  -0.000000
  107        1.246713  -0.000000
  108        1.272311  -0.000000
  109        1.365658  -0.000000
  110        1.370765  -0.000000
  111        1.451900  -0.000000
  112        1.538455  -0.000000
  113        1.596153  -0.000000
  114        1.613258  -0.000000
  115        1.661241  -0.000000
  116        1.727206  -0.000000
  117        1.741755  -0.000000
  118        1.824135  -0.000000
  119        1.965692  -0.000000
  120        2.159770  -0.000000

  0.2222222E+00  0.9090909E-01  0.3065600E-15  0.6734007E-02
    1      -13.827086   1.000000
    2      -12.956110   1.000000
    3      -12.446369   1.000000
    4      -11.867988   1.000000
    5      -11.474254   1.000000
    6      -11.443743   1.000000
    7      -11.234597   1.000000
    8      -11.185516   1.000000
    9      -11.061749   1.000000
   10      -10.696913   1.000000
   11      -10.541455   1.000000
   12      -10.476098   1.000000
   13      -10.262798   1.000000
   14      -10.170875   1.000000
   15       -9.663030   1.000000
   16       -9.600752   1.000000
   17       -9.187718   1.000000
   18       -8.987757   1.000000
   19       -8.896385   1.000000
   20       -8.762350   1.000000
   21       -8.688272   1.000000
   22       -8.415911   1.000000
   23       -8.191837   1.000000
   24       -8.031953   1.000000
   25       -7.971632   1.000000
   26       -7.794918   1.000000
   27       -7.720760   1.000000
   28       -7.152867   1.000000
   29       -6.670996   1.000000
   30       -6.401836   1.000000
   31       -6.309928   1.000000
   32       -6.289157   1.000000
   33       -6.046106   1.000000
   34       -5.901969   1.000000
   35       -5.684163   1.000000
   36       -5.536703   1.000000
   37       -5.383428   1.000000
   38       -5.358256   1.000000
   39       -5.271828   1.000000
   40       -5.239018   1.000000
   41       -5.180531   1.000000
   42       -5.107733   1.000000
   43       -5.019752   1.000000
   44       -4.932129   1.000000
   45       -4.820315   1.000000
   46       -4.729637   1.000000
   47       -4.673295   1.000000
   48       -4.619606   1.000000