 running on   48 total cores
 distrk:  each k-point on   48 cores,    1 groups
 distr:  one band on    6 cores,    8 groups
 using from now: INCAR     
 vasp.5.4.4.18Apr17-6-g9f103f2a35 (build Dec  7 2020 12:43:57) complex           
 POSCAR found type information on POSCAR  Mo V  B  H 
 POSCAR found :  4 types and      49 ions
 scaLAPACK will be used

 ----------------------------------------------------------------------------- 
|                                                                             |
|  ADVICE TO THIS USER RUNNING 'VASP/VAMP'   (HEAR YOUR MASTER'S VOICE ...):  |
|                                                                             |
|      You enforced a specific xc-type in the INCAR file,                     |
|      a different type was found on the POTCAR file                          |
|          I HOPE YOU KNOW, WHAT YOU ARE  DOING                               |
|                                                                             |
 ----------------------------------------------------------------------------- 

 LDA part: xc-table for Pade appr. of Perdew
 POSCAR, INCAR and KPOINTS ok, starting setup
 resort distribution
 resort distribution
 resort distribution
 resort distribution
 resort distribution
 resort distribution
 resort distribution
 resort distribution
 resort distribution
 resort distribution
 resort distribution
 resort distribution
 resort distribution
 resort distribution
 resort distribution
 resort distribution
 resort distribution
 resort distribution
 resort distribution
 resort distribution
 resort distribution
 resort distribution
 resort distribution
 resort distribution
 resort distribution
 resort distribution
 resort distribution
 resort distribution
 resort distribution
 resort distribution
 resort distribution
 resort distribution
 resort distribution
 resort distribution
 resort distribution
 resort distribution
 resort distribution
 resort distribution
 resort distribution
 resort distribution
 resort distribution
 resort distribution
 resort distribution
 resort distribution
 resort distribution
 resort distribution
 resort distribution
 resort distribution
 FFT: planning ...
 WAVECAR not read
 augmentation electrons   189.00947222762764     
 soft         electrons   0.0000000000000000     
 augmentation electrons   189.00947222762764     
 soft         electrons   0.0000000000000000     
 augmentation electrons   189.00947222762764     
 soft         electrons   0.0000000000000000     
 augmentation electrons   189.00947222762764     
 soft         electrons   0.0000000000000000     
 augmentation electrons   189.00947222762764     
 soft         electrons   0.0000000000000000     
 augmentation electrons   189.00947222762764     
 soft         electrons   0.0000000000000000     
 augmentation electrons   189.00947222762764     
 soft         electrons   0.0000000000000000     
 augmentation electrons   189.00947222762764     
 soft         electrons   0.0000000000000000     
 augmentation electrons   189.00947222762764     
 soft         electrons   0.0000000000000000     
 augmentation electrons   189.00947222762764     
 soft         electrons   0.0000000000000000     
 augmentation electrons   189.00947222762764     
 soft         electrons   0.0000000000000000     
 augmentation electrons   189.00947222762764     
 soft         electrons   0.0000000000000000     
 augmentation electrons   189.00947222762764     
 soft         electrons   0.0000000000000000     
 augmentation electrons   189.00947222762764     
 soft         electrons   0.0000000000000000     
 augmentation electrons   189.00947222762764     
 soft         electrons   0.0000000000000000     
 augmentation electrons   189.00947222762764     
 soft         electrons   0.0000000000000000     
 augmentation electrons   189.00947222762764     
 soft         electrons   0.0000000000000000     
 augmentation electrons   189.00947222762764     
 soft         electrons   0.0000000000000000     
 augmentation electrons   189.00947222762764     
 soft         electrons   0.0000000000000000     
 augmentation electrons   189.00947222762764     
 soft         electrons   0.0000000000000000     
 augmentation electrons   189.00947222762764     
 soft         electrons   0.0000000000000000     
 augmentation electrons   189.00947222762764     
 soft         electrons   0.0000000000000000     
 augmentation electrons   189.00947222762764     
 soft         electrons   0.0000000000000000     
 augmentation electrons   189.00947222762764     
 soft         electrons   0.0000000000000000     
 augmentation electrons   189.00947222762764     
 soft         electrons   0.0000000000000000     
 augmentation electrons   189.00947222762764     
 soft         electrons   0.0000000000000000     
 augmentation electrons   189.00947222762764     
 soft         electrons   0.0000000000000000     
 augmentation electrons   189.00947222762764     
 soft         electrons   0.0000000000000000     
 augmentation electrons   189.00947222762764     
 soft         electrons   0.0000000000000000     
 augmentation electrons   189.00947222762764     
 soft         electrons   0.0000000000000000     
 augmentation electrons   189.00947222762764     
 soft         electrons   0.0000000000000000     
 augmentation electrons   189.00947222762764     
 soft         electrons   0.0000000000000000     
 augmentation electrons   189.00947222762764     
 soft         electrons   0.0000000000000000     
 augmentation electrons   189.00947222762764     
 soft         electrons   0.0000000000000000     
 augmentation electrons   189.00947222762764     
 soft         electrons   0.0000000000000000     
 augmentation electrons   189.00947222762764     
 soft         electrons   0.0000000000000000     
 augmentation electrons   189.00947222762764     
 soft         electrons   0.0000000000000000     
 augmentation electrons   189.00947222762764     
 soft         electrons   0.0000000000000000     
 augmentation electrons   189.00947222762764     
 soft         electrons   0.0000000000000000     
 augmentation electrons   189.00947222762764     
 soft         electrons   0.0000000000000000     
 augmentation electrons   189.00947222762764     
 soft         electrons   0.0000000000000000     
 augmentation electrons   189.00947222762764     
 soft         electrons   0.0000000000000000     
 augmentation electrons   189.00947222762764     
 soft         electrons   0.0000000000000000     
 augmentation electrons   189.00947222762764     
 soft         electrons   0.0000000000000000     
 augmentation electrons   189.00947222762764     
 soft         electrons   0.0000000000000000     
 augmentation electrons   189.00947222762764     
 soft         electrons   0.0000000000000000     
 augmentation electrons   189.00947222762764     
 soft         electrons   0.0000000000000000     
 augmentation electrons   189.00947222762764     
 soft         electrons   0.0000000000000000     
 total        electrons   189.00947222762764     
 total        electrons   189.00947222762764     
 total        electrons   189.00947222762764     
 total        electrons   189.00947222762764     
 total        electrons   189.00947222762764     
 total        electrons   189.00947222762764     
 total        electrons   189.00947222762764     
 total        electrons   189.00947222762764     
 total        electrons   189.00947222762764     
 total        electrons   189.00947222762764     
 total        electrons   189.00947222762764     
 total        electrons   189.00947222762764     
 total        electrons   189.00947222762764     
 total        electrons   189.00947222762764     
 total        electrons   189.00947222762764     
 total        electrons   189.00947222762764     
 total        electrons   189.00947222762764     
 total        electrons   189.00947222762764     
 total        electrons   189.00947222762764     
 total        electrons   189.00947222762764     
 total        electrons   189.00947222762764     
 total        electrons   189.00947222762764     
 total        electrons   189.00947222762764     
 total        electrons   189.00947222762764     
 total        electrons   189.00947222762764     
 total        electrons   189.00947222762764     
 total        electrons   189.00947222762764     
 total        electrons   189.00947222762764     
 total        electrons   189.00947222762764     
 total        electrons   189.00947222762764     
 total        electrons   189.00947222762764     
 total        electrons   189.00947222762764     
 total        electrons   189.00947222762764     
 total        electrons   189.00947222762764     
 total        electrons   189.00947222762764     
 total        electrons   189.00947222762764     
 total        electrons   189.00947222762764     
 total        electrons   189.00947222762764     
 total        electrons   189.00947222762764     
 total        electrons   189.00947222762764     
 total        electrons   189.00947222762764     
 total        electrons   189.00947222762764     
 total        electrons   189.00947222762764     
 total        electrons   189.00947222762764     
 total        electrons   189.00947222762764     
 total        electrons   189.00947222762764     
 total        electrons   189.00947222762764     
 total        electrons   189.00947222762764     
 augmentation electrons   591.20356166282295     
 soft         electrons   0.0000000000000000     
 augmentation electrons   591.20356166282295     
 soft         electrons   0.0000000000000000     
 augmentation electrons   591.20356166282295     
 soft         electrons   0.0000000000000000     
 augmentation electrons   591.20356166282295     
 soft         electrons   0.0000000000000000     
 augmentation electrons   591.20356166282295     
 soft         electrons   0.0000000000000000     
 augmentation electrons   591.20356166282295     
 soft         electrons   0.0000000000000000     
 augmentation electrons   591.20356166282295     
 soft         electrons   0.0000000000000000     
 augmentation electrons   591.20356166282295     
 soft         electrons   0.0000000000000000     
 augmentation electrons   591.20356166282295     
 soft         electrons   0.0000000000000000     
 augmentation electrons   591.20356166282295     
 soft         electrons   0.0000000000000000     
 augmentation electrons   591.20356166282295     
 soft         electrons   0.0000000000000000     
 augmentation electrons   591.20356166282295     
 soft         electrons   0.0000000000000000     
 augmentation electrons   591.20356166282295     
 soft         electrons   0.0000000000000000     
 augmentation electrons   591.20356166282295     
 soft         electrons   0.0000000000000000     
 augmentation electrons   591.20356166282295     
 soft         electrons   0.0000000000000000     
 augmentation electrons   591.20356166282295     
 soft         electrons   0.0000000000000000     
 augmentation electrons   591.20356166282295     
 soft         electrons   0.0000000000000000     
 augmentation electrons   591.20356166282295     
 soft         electrons   0.0000000000000000     
 augmentation electrons   591.20356166282295     
 soft         electrons   0.0000000000000000     
 augmentation electrons   591.20356166282295     
 soft         electrons   0.0000000000000000     
 augmentation electrons   591.20356166282295     
 soft         electrons   0.0000000000000000     
 augmentation electrons   591.20356166282295     
 soft         electrons   0.0000000000000000     
 augmentation electrons   591.20356166282295     
 soft         electrons   0.0000000000000000     
 augmentation electrons   591.20356166282295     
 soft         electrons   0.0000000000000000     
 augmentation electrons   591.20356166282295     
 soft         electrons   0.0000000000000000     
 augmentation electrons   591.20356166282295     
 soft         electrons   0.0000000000000000     
 augmentation electrons   591.20356166282295     
 soft         electrons   0.0000000000000000     
 augmentation electrons   591.20356166282295     
 soft         electrons   0.0000000000000000     
 augmentation electrons   591.20356166282295     
 soft         electrons   0.0000000000000000     
 augmentation electrons   591.20356166282295     
 soft         electrons   0.0000000000000000     
 augmentation electrons   591.20356166282295     
 soft         electrons   0.0000000000000000     
 augmentation electrons   591.20356166282295     
 soft         electrons   0.0000000000000000     
 augmentation electrons   591.20356166282295     
 soft         electrons   0.0000000000000000     
 augmentation electrons   591.20356166282295     
 soft         electrons   0.0000000000000000     
 augmentation electrons   591.20356166282295     
 soft         electrons   0.0000000000000000     
 augmentation electrons   591.20356166282295     
 soft         electrons   0.0000000000000000     
 augmentation electrons   591.20356166282295     
 soft         electrons   0.0000000000000000     
 augmentation electrons   591.20356166282295     
 soft         electrons   0.0000000000000000     
 augmentation electrons   591.20356166282295     
 soft         electrons   0.0000000000000000     
 augmentation electrons   591.20356166282295     
 soft         electrons   0.0000000000000000     
 augmentation electrons   591.20356166282295     
 soft         electrons   0.0000000000000000     
 augmentation electrons   591.20356166282295     
 soft         electrons   0.0000000000000000     
 augmentation electrons   591.20356166282295     
 soft         electrons   0.0000000000000000     
 augmentation electrons   591.20356166282295     
 soft         electrons   0.0000000000000000     
 augmentation electrons   591.20356166282295     
 soft         electrons   0.0000000000000000     
 augmentation electrons   591.20356166282295     
 soft         electrons   0.0000000000000000     
 augmentation electrons   591.20356166282295     
 soft         electrons   0.0000000000000000     
 augmentation electrons   591.20356166282295     
 soft         electrons   0.0000000000000000     
 total        electrons   591.20356166282295     
 total        electrons   591.20356166282295     
 total        electrons   591.20356166282295     
 total        electrons   591.20356166282295     
 total        electrons   591.20356166282295     
 total        electrons   591.20356166282295     
 total        electrons   591.20356166282295     
 total        electrons   591.20356166282295     
 total        electrons   591.20356166282295     
 total        electrons   591.20356166282295     
 total        electrons   591.20356166282295     
 total        electrons   591.20356166282295     
 total        electrons   591.20356166282295     
 total        electrons   591.20356166282295     
 total        electrons   591.20356166282295     
 total        electrons   591.20356166282295     
 total        electrons   591.20356166282295     
 total        electrons   591.20356166282295     
 total        electrons   591.20356166282295     
 total        electrons   591.20356166282295     
 total        electrons   591.20356166282295     
 total        electrons   591.20356166282295     
 total        electrons   591.20356166282295     
 total        electrons   591.20356166282295     
 total        electrons   591.20356166282295     
 total        electrons   591.20356166282295     
 total        electrons   591.20356166282295     
 total        electrons   591.20356166282295     
 total        electrons   591.20356166282295     
 total        electrons   591.20356166282295     
 total        electrons   591.20356166282295     
 total        electrons   591.20356166282295     
 total        electrons   591.20356166282295     
 total        electrons   591.20356166282295     
 total        electrons   591.20356166282295     
 total        electrons   591.20356166282295     
 total        electrons   591.20356166282295     
 total        electrons   591.20356166282295     
 total        electrons   591.20356166282295     
 total        electrons   591.20356166282295     
 total        electrons   591.20356166282295     
 total        electrons   591.20356166282295     
 total        electrons   591.20356166282295     
 total        electrons   591.20356166282295     
 total        electrons   591.20356166282295     
 total        electrons   591.20356166282295     
 total        electrons   591.20356166282295     
 total        electrons   591.20356166282295     
 entering main loop
       N       E                     dE             d eps       ncg     rms          rms(c)
DAV:   1     0.162331823926E+04    0.16233E+04   -0.68222E+04 35792   0.126E+03
DAV:   2    -0.151582932290E+03   -0.17749E+04   -0.16657E+04 43048   0.303E+02
DAV:   3    -0.425568833347E+03   -0.27399E+03   -0.26252E+03 50336   0.140E+02
DAV:   4    -0.447716823643E+03   -0.22148E+02   -0.21240E+02 58208   0.439E+01
DAV:   5    -0.449002772426E+03   -0.12859E+01   -0.12436E+01 60432   0.999E+00    0.116E+02
RMM:   6    -0.414782509860E+03    0.34220E+02   -0.80128E+02 56387   0.884E+01    0.524E+01
RMM:   7    -0.444084695120E+03   -0.29302E+02   -0.23038E+02 45839   0.545E+01    0.429E+01
RMM:   8    -0.392838051912E+03    0.51247E+02   -0.72322E+01 44455   0.300E+01    0.242E+01
RMM:   9    -0.386233266558E+03    0.66048E+01   -0.25757E+01 50475   0.157E+01    0.198E+01
RMM:  10    -0.379432280039E+03    0.68010E+01   -0.12449E+01 44045   0.126E+01    0.128E+01
RMM:  11    -0.379488657514E+03   -0.56377E-01   -0.27124E+00 52674   0.467E+00    0.113E+01
RMM:  12    -0.379517901960E+03   -0.29244E-01   -0.92475E-01 45826   0.257E+00    0.103E+01
RMM:  13    -0.379176604350E+03    0.34130E+00   -0.29380E+00 40151   0.730E+00    0.692E+00
RMM:  14    -0.379248838027E+03   -0.72234E-01   -0.27456E+00 43161   0.575E+00    0.607E+00
RMM:  15    -0.378818520473E+03    0.43032E+00   -0.48765E-01 41031   0.288E+00    0.260E+00
RMM:  16    -0.378770267165E+03    0.48253E-01   -0.81478E-01 55717   0.173E+00    0.159E+00
RMM:  17    -0.378745704339E+03    0.24563E-01   -0.16754E-01 47659   0.152E+00    0.834E-01
RMM:  18    -0.378741084383E+03    0.46200E-02   -0.59664E-02 43042   0.890E-01    0.775E-01
RMM:  19    -0.378736849352E+03    0.42350E-02   -0.33144E-02 49664   0.453E-01    0.559E-01
RMM:  20    -0.378731278934E+03    0.55704E-02   -0.15437E-02 41260   0.465E-01    0.208E-01
RMM:  21    -0.378729734514E+03    0.15444E-02   -0.10284E-02 51690   0.227E-01    0.213E-01
RMM:  22    -0.378730187069E+03   -0.45255E-03   -0.93036E-03 40725   0.361E-01    0.322E-01
RMM:  23    -0.378730072455E+03    0.11461E-03   -0.40124E-03 53739   0.111E-01    0.208E-01
RMM:  24    -0.378730805529E+03   -0.73307E-03   -0.15282E-03 41976   0.151E-01    0.543E-02
RMM:  25    -0.378731380565E+03   -0.57504E-03   -0.79606E-04 54782   0.475E-02    0.389E-02
RMM:  26    -0.378731829801E+03   -0.44924E-03   -0.20380E-04 49919   0.406E-02    0.585E-02
RMM:  27    -0.378732099399E+03   -0.26960E-03   -0.20791E-04 43850   0.484E-02    0.172E-02
RMM:  28    -0.378732229195E+03   -0.12980E-03   -0.15050E-04 52568   0.172E-02    0.327E-02
RMM:  29    -0.378732282300E+03   -0.53106E-04   -0.34282E-05 37396   0.253E-02    0.640E-03
RMM:  30    -0.378732359591E+03   -0.77290E-04   -0.26167E-05 41397   0.829E-03    0.783E-03
RMM:  31    -0.378732407542E+03   -0.47951E-04   -0.14232E-05 35513   0.765E-03    0.951E-03
RMM:  32    -0.378732440209E+03   -0.32667E-04   -0.50767E-06 31241   0.968E-03    0.404E-03
RMM:  33    -0.378732506368E+03   -0.66159E-04   -0.60153E-06 32472   0.463E-03    0.271E-03
RMM:  34    -0.378732529380E+03   -0.23012E-04   -0.19603E-06 29357   0.432E-03    0.228E-03
RMM:  35    -0.378732562482E+03   -0.33102E-04   -0.27257E-06 29447   0.368E-03    0.179E-03
RMM:  36    -0.378732575890E+03   -0.13408E-04   -0.11713E-06 27203   0.382E-03    0.126E-03
RMM:  37    -0.378732583508E+03   -0.76185E-05   -0.84100E-07 25390   0.249E-03    0.168E-03
RMM:  38    -0.378732587160E+03   -0.36516E-05   -0.47799E-07 23965   0.272E-03    0.132E-03
RMM:  39    -0.378732590116E+03   -0.29558E-05   -0.38534E-07 22611   0.215E-03    0.777E-04
RMM:  40    -0.378732591101E+03   -0.98506E-06   -0.23756E-07 18477   0.147E-03
   1 F= -.37873259E+03 E0= -.37873427E+03  d E =0.502243E-02
 augmentation electrons   20.904465732803232     
 soft         electrons   168.14991620248981     
 augmentation electrons   20.904465732803232     
 soft         electrons   168.14991620248981     
 augmentation electrons   20.904465732803232     
 soft         electrons   168.14991620248981     
 augmentation electrons   20.904465732803232     
 soft         electrons   168.14991620248981     
 augmentation electrons   20.904465732803232     
 soft         electrons   168.14991620248981     
 augmentation electrons   20.904465732803232     
 soft         electrons   168.14991620248981     
 augmentation electrons   20.904465732803232     
 soft         electrons   168.14991620248981     
 augmentation electrons   20.904465732803232     
 soft         electrons   168.14991620248981     
 augmentation electrons   20.904465732803232     
 soft         electrons   168.14991620248981     
 augmentation electrons   20.904465732803232     
 soft         electrons   168.14991620248981     
 augmentation electrons   20.904465732803232     
 soft         electrons   168.14991620248981     
 augmentation electrons   20.904465732803232     
 soft         electrons   168.14991620248981     
 augmentation electrons   20.904465732803232     
 soft         electrons   168.14991620248981     
 augmentation electrons   20.904465732803232     
 soft         electrons   168.14991620248981     
 augmentation electrons   20.904465732803232     
 soft         electrons   168.14991620248981     
 augmentation electrons   20.904465732803232     
 soft         electrons   168.14991620248981     
 augmentation electrons   20.904465732803232     
 soft         electrons   168.14991620248981     
 augmentation electrons   20.904465732803232     
 soft         electrons   168.14991620248981     
 augmentation electrons   20.904465732803232     
 soft         electrons   168.14991620248981     
 augmentation electrons   20.904465732803232     
 soft         electrons   168.14991620248981     
 augmentation electrons   20.904465732803232     
 soft         electrons   168.14991620248981     
 augmentation electrons   20.904465732803232     
 soft         electrons   168.14991620248981     
 augmentation electrons   20.904465732803232     
 soft         electrons   168.14991620248981     
 augmentation electrons   20.904465732803232     
 soft         electrons   168.14991620248981     
 augmentation electrons   20.904465732803232     
 soft         electrons   168.14991620248981     
 augmentation electrons   20.904465732803232     
 soft         electrons   168.14991620248981     
 augmentation electrons   20.904465732803232     
 soft         electrons   168.14991620248981     
 augmentation electrons   20.904465732803232     
 soft         electrons   168.14991620248981     
 augmentation electrons   20.904465732803232     
 soft         electrons   168.14991620248981     
 augmentation electrons   20.904465732803232     
 soft         electrons   168.14991620248981     
 augmentation electrons   20.904465732803232     
 soft         electrons   168.14991620248981     
 augmentation electrons   20.904465732803232     
 soft         electrons   168.14991620248981     
 augmentation electrons   20.904465732803232     
 soft         electrons   168.14991620248981     
 augmentation electrons   20.904465732803232     
 soft         electrons   168.14991620248981     
 augmentation electrons   20.904465732803232     
 soft         electrons   168.14991620248981     
 augmentation electrons   20.904465732803232     
 soft         electrons   168.14991620248981     
 augmentation electrons   20.904465732803232     
 soft         electrons   168.14991620248981     
 augmentation electrons   20.904465732803232     
 soft         electrons   168.14991620248981     
 augmentation electrons   20.904465732803232     
 soft         electrons   168.14991620248981     
 augmentation electrons   20.904465732803232     
 soft         electrons   168.14991620248981     
 augmentation electrons   20.904465732803232     
 soft         electrons   168.14991620248981     
 augmentation electrons   20.904465732803232     
 soft         electrons   168.14991620248981     
 augmentation electrons   20.904465732803232     
 soft         electrons   168.14991620248981     
 augmentation electrons   20.904465732803232     
 soft         electrons   168.14991620248981     
 augmentation electrons   20.904465732803232     
 soft         electrons   168.14991620248981     
 augmentation electrons   20.904465732803232     
 soft         electrons   168.14991620248981     
 augmentation electrons   20.904465732803232     
 soft         electrons   168.14991620248981     
 augmentation electrons   20.904465732803232     
 soft         electrons   168.14991620248981     
 total        electrons   189.05438193529304     
 total        electrons   189.05438193529304     
 total        electrons   189.05438193529304     
 total        electrons   189.05438193529304     
 total        electrons   189.05438193529304     
 total        electrons   189.05438193529304     
 total        electrons   189.05438193529304     
 total        electrons   189.05438193529304     
 total        electrons   189.05438193529304     
 total        electrons   189.05438193529304     
 total        electrons   189.05438193529304     
 total        electrons   189.05438193529304     
 total        electrons   189.05438193529304     
 total        electrons   189.05438193529304     
 total        electrons   189.05438193529304     
 total        electrons   189.05438193529304     
 total        electrons   189.05438193529304     
 total        electrons   189.05438193529304     
 total        electrons   189.05438193529304     
 total        electrons   189.05438193529304     
 total        electrons   189.05438193529304     
 total        electrons   189.05438193529304     
 total        electrons   189.05438193529304     
 total        electrons   189.05438193529304     
 total        electrons   189.05438193529304     
 total        electrons   189.05438193529304     
 total        electrons   189.05438193529304     
 total        electrons   189.05438193529304     
 total        electrons   189.05438193529304     
 total        electrons   189.05438193529304     
 total        electrons   189.05438193529304     
 total        electrons   189.05438193529304     
 total        electrons   189.05438193529304     
 total        electrons   189.05438193529304     
 total        electrons   189.05438193529304     
 total        electrons   189.05438193529304     
 total        electrons   189.05438193529304     
 total        electrons   189.05438193529304     
 total        electrons   189.05438193529304     
 total        electrons   189.05438193529304     
 total        electrons   189.05438193529304     
 total        electrons   189.05438193529304     
 total        electrons   189.05438193529304     
 total        electrons   189.05438193529304     
 total        electrons   189.05438193529304     
 total        electrons   189.05438193529304     
 total        electrons   189.05438193529304     
 total        electrons   189.05438193529304     
Note: The following floating-point exceptions are signalling: IEEE_OVERFLOW_FLAG
Note: The following floating-point exceptions are signalling: IEEE_OVERFLOW_FLAG
Note: The following floating-point exceptions are signalling: IEEE_OVERFLOW_FLAG
Note: The following floating-point exceptions are signalling: IEEE_OVERFLOW_FLAG
Note: The following floating-point exceptions are signalling: IEEE_OVERFLOW_FLAG
Note: The following floating-point exceptions are signalling: IEEE_OVERFLOW_FLAG
Note: The following floating-point exceptions are signalling: IEEE_OVERFLOW_FLAG
Note: The following floating-point exceptions are signalling: IEEE_OVERFLOW_FLAG
Note: The following floating-point exceptions are signalling: IEEE_OVERFLOW_FLAG
Note: The following floating-point exceptions are signalling: IEEE_OVERFLOW_FLAG
Note: The following floating-point exceptions are signalling: IEEE_OVERFLOW_FLAG
Note: The following floating-point exceptions are signalling: IEEE_OVERFLOW_FLAG
Note: The following floating-point exceptions are signalling: IEEE_OVERFLOW_FLAG
Note: The following floating-point exceptions are signalling: IEEE_OVERFLOW_FLAG
Note: The following floating-point exceptions are signalling: IEEE_OVERFLOW_FLAG
Note: The following floating-point exceptions are signalling: IEEE_OVERFLOW_FLAG
Note: The following floating-point exceptions are signalling: IEEE_OVERFLOW_FLAG
Note: The following floating-point exceptions are signalling: IEEE_OVERFLOW_FLAG
Note: The following floating-point exceptions are signalling: IEEE_OVERFLOW_FLAG
Note: The following floating-point exceptions are signalling: IEEE_OVERFLOW_FLAG
Note: The following floating-point exceptions are signalling: IEEE_OVERFLOW_FLAG
Note: The following floating-point exceptions are signalling: IEEE_OVERFLOW_FLAG
Note: The following floating-point exceptions are signalling: IEEE_OVERFLOW_FLAG
Note: The following floating-point exceptions are signalling: IEEE_OVERFLOW_FLAG
Note: The following floating-point exceptions are signalling: IEEE_OVERFLOW_FLAG
Note: The following floating-point exceptions are signalling: IEEE_OVERFLOW_FLAG
Note: The following floating-point exceptions are signalling: IEEE_OVERFLOW_FLAG
Note: The following floating-point exceptions are signalling: IEEE_OVERFLOW_FLAG
Note: The following floating-point exceptions are signalling: IEEE_OVERFLOW_FLAG
Note: The following floating-point exceptions are signalling: IEEE_OVERFLOW_FLAG
Note: The following floating-point exceptions are signalling: IEEE_OVERFLOW_FLAG
Note: The following floating-point exceptions are signalling: IEEE_OVERFLOW_FLAG
Note: The following floating-point exceptions are signalling: IEEE_OVERFLOW_FLAG
Note: The following floating-point exceptions are signalling: IEEE_OVERFLOW_FLAG
Note: The following floating-point exceptions are signalling: IEEE_OVERFLOW_FLAG
Note: The following floating-point exceptions are signalling: IEEE_OVERFLOW_FLAG
Note: The following floating-point exceptions are signalling: IEEE_OVERFLOW_FLAG
Note: The following floating-point exceptions are signalling: IEEE_OVERFLOW_FLAG
Note: The following floating-point exceptions are signalling: IEEE_OVERFLOW_FLAG
Note: The following floating-point exceptions are signalling: IEEE_OVERFLOW_FLAG
Note: The following floating-point exceptions are signalling: IEEE_OVERFLOW_FLAG
Note: The following floating-point exceptions are signalling: IEEE_OVERFLOW_FLAG
Note: The following floating-point exceptions are signalling: IEEE_OVERFLOW_FLAG
Note: The following floating-point exceptions are signalling: IEEE_OVERFLOW_FLAG
Note: The following floating-point exceptions are signalling: IEEE_OVERFLOW_FLAG
Note: The following floating-point exceptions are signalling: IEEE_OVERFLOW_FLAG
Note: The following floating-point exceptions are signalling: IEEE_OVERFLOW_FLAG
Note: The following floating-point exceptions are signalling: IEEE_OVERFLOW_FLAG
