   56   56   85    1
  0.1269428E+02  0.6078000E-09  0.6078000E-09  0.2222000E-08  0.5000000E-15
   1.0000000000000000E-004
  CAR 
 Name                                    
    200     41    132

  0.3742002E-15  0.3742002E-15  0.1262379E-14  0.1234568E-01
    1      -11.178675   1.000000
    2      -10.594526   1.000000
    3       -9.799571   1.000000
    4       -8.838743   1.000000
    5       -8.287310   1.000000
    6       -8.195747   1.000000
    7       -7.819966   1.000000
    8       -7.690904   1.000000
    9       -7.413884   1.000000
   10       -7.400674   1.000000
   11       -7.383496   1.000000
   12       -7.303889   1.000000
   13       -7.289839   1.000000
   14       -7.238434   1.000000
   15       -7.049661   1.000000
   16       -7.036787   1.000000
   17       -6.962298   1.000000
   18       -6.811011   1.000000
   19       -6.737060   1.000000
   20       -6.616922   1.000000
   21       -6.461989   1.000000
   22       -5.980524   1.000000
   23       -5.768213   1.000000
   24       -5.706471   1.000000
   25       -5.682423   1.000000
   26       -5.535363   1.000000
   27       -5.445649   1.000000
   28       -5.370567   1.000000
   29       -5.368005   1.000000
   30       -5.138528   1.000000
   31       -4.776466   1.000000
   32       -4.324906   1.000000
   33       -4.175200   1.000000
   34       -4.149383   1.000000
   35       -4.134544   1.000000
   36       -4.004748   1.000000
   37       -3.652290   1.000000
   38       -3.161273   1.000000
   39       -2.888655   1.000000
   40       -2.782486   1.000000
   41       -2.627905   1.000000
   42       -2.429074   1.000000
   43       -2.374099   1.000000
   44       -2.195910   1.000000
   45       -2.142009   1.000000
   46       -2.096572   1.000000
   47       -2.064576   1.000000
   48       -2.006232   1.000000
   49       -1.685487   1.000000
   50       -1.670872   1.000000
   51       -1.654189   1.000000
   52       -1.537253   1.000000
   53       -1.525658   1.000000
   54       -1.405484   1.000000
   55       -1.390599   1.000000
   56       -1.282164   1.000000
   57       -1.277352   1.000000
   58       -1.194867   1.000000
   59       -1.082674   1.000000
   60       -1.069543   1.000000
   61       -1.008298   1.000000
   62       -1.000654   1.000000
   63       -0.838750   1.000000
   64       -0.705544   1.000000
   65       -0.689318   1.000000
   66       -0.683905   1.000000
   67       -0.619546   1.000000
   68       -0.487617   1.000000
   69       -0.451903   1.000000
   70       -0.371282   1.000000
   71       -0.337690   1.000000
   72       -0.281926   1.000000
   73       -0.180195   1.000000
   74        0.059264   1.000000
   75        0.118750   1.000000
   76        0.167291   1.000000
   77        0.278184   1.000000
   78        0.378155   1.000000
   79        0.484535   1.000000
   80        0.623420   1.000000
   81        0.650859   1.000000
   82        0.904182   1.000000
   83        1.076380   1.000000
   84        1.354031   1.000000
   85        1.358499   1.000000
   86        1.544447   1.000000
   87        1.660086   1.000000
   88        1.692086   1.000000
   89        1.780376   1.000000
   90        1.893521   1.000000
   91        1.947655   1.000000
   92        1.967760   1.000000
   93        1.979834   1.000000
   94        2.058334   1.000000
   95        2.103278   1.000000
   96        2.158582   1.000001
   97        2.407359   1.000946
   98        2.434911   1.001737
   99        2.996467   0.189131
  100        3.068892   0.020052
  101        3.118711  -0.026331
  102        3.265721  -0.016546
  103        3.339740  -0.005376
  104        3.454543  -0.000473
  105        3.551092  -0.000034
  106        3.617777  -0.000004
  107        3.654159  -0.000001
  108        3.844288  -0.000000
  109        3.892655  -0.000000
  110        3.925806  -0.000000
  111        3.946409  -0.000000
  112        3.998653  -0.000000
  113        4.013179  -0.000000
  114        4.051278  -0.000000
  115        4.130137  -0.000000
  116        4.141583  -0.000000
  117        4.143609  -0.000000
  118        4.206436  -0.000000
  119        4.290244  -0.000000
  120        4.338470  -0.000000
  121        4.371291  -0.000000
  122        4.394328  -0.000000
  123        4.415107  -0.000000
  124        4.467143  -0.000000
  125        4.492684  -0.000000
  126        4.602568  -0.000000
  127        4.646948  -0.000000
  128        4.664715  -0.000000
  129        4.863698  -0.000000
  130        4.924063  -0.000000
  131        5.186361  -0.000000
  132        5.236456  -0.000000

  0.1111111E+00  0.3756941E-15  0.1262379E-14  0.2469136E-01
    1      -11.121381   1.000000
    2      -10.542185   1.000000
    3       -9.757806   1.000000
    4       -8.802817   1.000000
    5       -8.257150   1.000000
    6       -8.216011   1.000000
    7       -7.965729   1.000000
    8       -7.957969   1.000000
    9       -7.700635   1.000000
   10       -7.542814   1.000000
   11       -7.517623   1.000000
   12       -7.503496   1.000000
   13       -7.455111   1.000000
   14       -7.439831   1.000000
   15       -6.947704   1.000000
   16       -6.818182   1.000000
   17       -6.755882   1.000000
   18       -6.565980   1.000000
   19       -6.524475   1.000000
   20       -6.399408   1.000000
   21       -6.239502   1.000000
   22       -5.988152   1.000000
   23       -5.867534   1.000000
   24       -5.708504   1.000000
   25       -5.598090   1.000000
   26       -5.491034   1.000000
   27       -5.426647   1.000000
   28       -5.412046   1.000000
   29       -5.243754   1.000000
   30       -5.063376   1.000000
   31       -4.705737   1.000000
   32       -4.171312   1.000000
   33       -4.116390   1.000000
   34       -4.053526   1.000000
   35       -3.964367   1.000000
   36       -3.861216   1.000000
   37       -3.588166   1.000000
   38       -3.143737   1.000000
   39       -2.906545   1.000000
   40       -2.817688   1.000000
   41       -2.610118   1.000000
   42       -2.524304   1.000000
   43       -2.367011   1.000000
   44       -2.309479   1.000000
   45       -2.214113   1.000000
   46       -2.160881   1.000000
   47       -2.078662   1.000000
   48       -2.036395   1.000000
   49       -1.855774   1.000000
   50       -1.710329   1.000000
   51       -1.641752   1.000000
   52       -1.594146   1.000000
   53       -1.544587   1.000000
   54       -1.446738   1.000000
   55       -1.368920   1.000000
   56       -1.288110   1.000000
   57       -1.260631   1.000000
   58       -1.209010   1.000000
   59       -1.099233   1.000000
   60       -1.039762   1.000000
   61       -1.013436   1.000000
   62       -0.985357   1.000000
   63       -0.922172   1.000000
   64       -0.785112   1.000000
   65       -0.734434   1.000000
   66       -0.724526   1.000000
   67       -0.657394   1.000000
   68       -0.527088   1.000000
   69       -0.460612   1.000000
   70       -0.368684   1.000000
   71       -0.339497   1.000000
   72       -0.260530   1.000000
   73       -0.154442   1.000000
   74       -0.099283   1.000000
   75        0.027846   1.000000
   76        0.176787   1.000000
   77        0.267335   1.000000
   78        0.276113   1.000000
   79        0.484507   1.000000
   80        0.546490   1.000000
   81        0.669957   1.000000
   82        0.704287   1.000000
   83        1.046532   1.000000
   84        1.290634   1.000000
   85        1.378719   1.000000
   86        1.421370   1.000000
   87        1.497204   1.000000
   88        1.581332   1.000000
   89        1.737168   1.000000
   90        1.788645   1.000000
   91        1.877695   1.000000
   92        1.916104   1.000000
   93        1.934367   1.000000
   94        1.996528   1.000000
   95        2.157280   1.000001
   96        2.255088   1.000015
   97        2.506124   1.006759
   98        2.712035   1.027204
   99        2.987886   0.217551
  100        3.025273   0.106276
  101        3.149896  -0.034921
  102        3.218007  -0.027270
  103        3.302708  -0.009897
  104        3.412549  -0.001259
  105        3.609395  -0.000005
  106        3.669793  -0.000001
  107        3.793154  -0.000000
  108        3.860221  -0.000000
  109        3.891345  -0.000000
  110        3.907834  -0.000000
  111        3.933131  -0.000000
  112        3.985673  -0.000000
  113        4.012892  -0.000000
  114        4.042624  -0.000000
  115        4.123793  -0.000000
  116        4.130617  -0.000000
  117        4.159107  -0.000000
  118        4.190170  -0.000000
  119        4.246563  -0.000000
  120        4.315394  -0.000000
  121        4.330585  -0.000000
  122        4.354364  -0.000000
  123        4.401090  -0.000000
  124        4.433878  -0.000000
  125        4.474915  -0.000000
  126        4.535826  -0.000000
  127        4.629671  -0.000000
  128        4.663632  -0.000000
  129        4.831380  -0.000000
  130        4.953437  -0.000000
  131        5.122042  -0.000000
  132        5.170940  -0.000000

  0.2222222E+00  0.3503827E-15  0.1262379E-14  0.2469136E-01
    1      -10.951463   1.000000
    2      -10.387504   1.000000
    3       -9.635786   1.000000
    4       -8.703534   1.000000
    5       -8.614723   1.000000
    6       -8.387388   1.000000
    7       -8.329119   1.000000
    8       -8.134644   1.000000
    9       -7.783738   1.000000
   10       -7.777613   1.000000
   11       -7.724655   1.000000
   12       -7.703969   1.000000
   13       -7.644788   1.000000
   14       -7.595839   1.000000
   15       -7.224521   1.000000
   16       -6.595799   1.000000
   17       -6.470338   1.000000
   18       -6.342177   1.000000
   19       -6.307495   1.000000
   20       -6.245889   1.000000
   21       -5.952224   1.000000
   22       -5.933135   1.000000
   23       -5.608535   1.000000
   24       -5.545977   1.000000
   25       -5.499105   1.000000
   26       -5.368680   1.000000
   27       -5.276861   1.000000
   28       -5.233214   1.000000
   29       -4.849384   1.000000
   30       -4.840556   1.000000
   31       -4.510787   1.000000
   32       -3.999257   1.000000
   33       -3.941310   1.000000
   34       -3.890402   1.000000
   35       -3.563080   1.000000
   36       -3.478832   1.000000
   37       -3.313019   1.000000
   38       -3.114224   1.000000
   39       -2.957217   1.000000
   40       -2.942857   1.000000
   41       -2.854589   1.000000
   42       -2.788614   1.000000
   43       -2.651566   1.000000
   44       -2.423747   1.000000
   45       -2.314883   1.000000
   46       -2.235810   1.000000
   47       -2.144907   1.000000
   48       -2.002262   1.000000
   49       -1.967854   1.000000
   50       -1.798455   1.000000
   51       -1.703594   1.000000
   52       -1.615811   1.000000
   53       -1.575562   1.000000
   54       -1.541058   1.000000
   55       -1.474543   1.000000
   56       -1.437195   1.000000
   57       -1.388428   1.000000
   58       -1.214124   1.000000
   59       -1.144681   1.000000
   60       -1.099891   1.000000
   61       -1.060327   1.000000
   62       -1.006320   1.000000
   63       -0.953803   1.000000
   64       -0.915657   1.000000
   65       -0.884517   1.000000
   66       -0.811972   1.000000
   67       -0.702629   1.000000
   68       -0.662756   1.000000
   69       -0.532935   1.000000
   70       -0.503961   1.000000
   71       -0.447355   1.000000
   72       -0.315882   1.000000
   73       -0.268963   1.000000
   74       -0.136319   1.000000
   75       -0.075713   1.000000
   76       -0.013050   1.000000
   77        0.034862   1.000000
   78        0.351181   1.000000
   79        0.389631   1.000000
   80        0.538083   1.000000
   81        0.655091   1.000000
   82        0.728525   1.000000
   83        0.829119   1.000000
   84        1.062811   1.000000
   85        1.204042   1.000000
   86        1.228164   1.000000
   87        1.389121   1.000000
   88        1.497365   1.000000
   89        1.679975   1.000000
   90        1.694621   1.000000
   91        1.704819   1.000000
   92        1.856968   1.000000
   93        1.878277   1.000000
   94        1.930109   1.000000
   95        2.157366   1.000001
   96        2.300293   1.000059
   97        2.375226   1.000441
   98        2.778894   0.955273
   99        2.955356   0.338206
  100        3.088164  -0.003700
  101        3.186299  -0.033432
  102        3.383913  -0.002315
  103        3.436611  -0.000727
  104        3.529043  -0.000065
  105        3.597421  -0.000008
  106        3.638265  -0.000002
  107        3.714970  -0.000000
  108        3.738676  -0.000000
  109        3.770631  -0.000000
  110        3.816595  -0.000000
  111        3.887928  -0.000000
  112        3.941117  -0.000000
  113        3.993450  -0.000000
  114        4.020296  -0.000000
  115        4.069729  -0.000000
  116        4.087156  -0.000000
  117        4.147201  -0.000000
  118        4.202053  -0.000000
  119        4.223432  -0.000000
  120        4.251249  -0.000000
  121        4.310727  -0.000000
  122        4.329917  -0.000000
  123        4.408754  -0.000000
  124        4.433270  -0.000000
  125        4.478169  -0.000000
  126        4.572621  -0.000000
  127        4.641638  -0.000000
  128        4.715133  -0.000000
  129        4.745578  -0.000000
  130        4.919031  -0.000000
  131        4.974952  -0.000000
  132        5.112505  -0.000000

  0.3333333E+00  0.3779629E-15  0.1262379E-14  0.2469136E-01
    1      -10.675489   1.000000
    2      -10.138120   1.000000
    3       -9.444307   1.000000
    4       -9.239002   1.000000
    5       -8.879360   1.000000
    6       -8.564730   1.000000
    7       -8.518612   1.000000
    8       -7.972106   1.000000
    9       -7.934687   1.000000
   10       -7.894535   1.000000
   11       -7.879285   1.000000
   12       -7.810107   1.000000
   13       -7.743135   1.000000
   14       -7.642312   1.000000
   15       -7.568715   1.000000
   16       -6.962641   1.000000
   17       -6.420949   1.000000
   18       -6.188501   1.000000
   19       -6.077120   1.000000
   20       -6.061368   1.000000
   21       -5.678249   1.000000
   22       -5.645425   1.000000
   23       -5.465618   1.000000
   24       -5.401819   1.000000
   25       -5.368036   1.000000
   26       -5.196588   1.000000
   27       -4.732308   1.000000
   28       -4.624959   1.000000
   29       -4.516007   1.000000
   30       -4.290990   1.000000
   31       -4.218529   1.000000
   32       -3.797967   1.000000
   33       -3.692757   1.000000
   34       -3.623736   1.000000
   35       -3.392829   1.000000
   36       -3.351877   1.000000
   37       -3.272629   1.000000
   38       -3.235176   1.000000
   39       -3.184965   1.000000
   40       -3.163795   1.000000
   41       -3.108049   1.000000
   42       -3.000183   1.000000
   43       -2.711649   1.000000
   44       -2.384264   1.000000
   45       -2.318466   1.000000
   46       -2.283033   1.000000
   47       -2.188513   1.000000
   48       -2.152160   1.000000
   49       -2.057603   1.000000
   50       -1.892159   1.000000
   51       -1.850246   1.000000
   52       -1.764708   1.000000
   53       -1.717511   1.000000
   54       -1.674549   1.000000
   55       -1.579251   1.000000
   56       -1.536204   1.000000
   57       -1.482615   1.000000
   58       -1.386348   1.000000
   59       -1.258078   1.000000
   60       -1.252677   1.000000
   61       -1.180344   1.000000
   62       -1.135245   1.000000
   63       -1.085872   1.000000
   64       -1.022773   1.000000
   65       -0.968147   1.000000
   66       -0.935463   1.000000
   67       -0.819781   1.000000
   68       -0.749899   1.000000
   69       -0.665694   1.000000
   70       -0.597173   1.000000
   71       -0.476409   1.000000
   72       -0.338595   1.000000
   73       -0.287741   1.000000
   74       -0.216167   1.000000
   75       -0.210349   1.000000
   76       -0.057729   1.000000
   77       -0.026951   1.000000
   78        0.113078   1.000000
   79        0.319078   1.000000
   80        0.456345   1.000000
   81        0.525814   1.000000
   82        0.788041   1.000000
   83        0.798486   1.000000
   84        0.935529   1.000000
   85        1.162914   1.000000
   86        1.263327   1.000000
   87        1.279883   1.000000
   88        1.426207   1.000000
   89        1.558334   1.000000
   90        1.581485   1.000000
   91        1.680645   1.000000
   92        1.791298   1.000000
   93        1.824486   1.000000
   94        1.909506   1.000000
   95        2.050214   1.000000
   96        2.184526   1.000001
   97        2.537749   1.011129
   98        2.610956   1.026444
   99        2.785972   0.941854
  100        3.131083  -0.031194
  101        3.155080  -0.035305
  102        3.207455  -0.029572
  103        3.279844  -0.013761
  104        3.341773  -0.005186
  105        3.445339  -0.000591
  106        3.469502  -0.000325
  107        3.631021  -0.000003
  108        3.697319  -0.000000
  109        3.746893  -0.000000
  110        3.760282  -0.000000
  111        3.823505  -0.000000
  112        3.852618  -0.000000
  113        3.887328  -0.000000
  114        4.014155  -0.000000
  115        4.036409  -0.000000
  116        4.125350  -0.000000
  117        4.190778  -0.000000
  118        4.201813  -0.000000
  119        4.233304  -0.000000
  120        4.271260  -0.000000
  121        4.314755  -0.000000
  122        4.335513  -0.000000
  123        4.423496  -0.000000
  124        4.480786  -0.000000
  125        4.529266  -0.000000
  126        4.615767  -0.000000
  127        4.648326  -0.000000
  128        4.699128  -0.000000
  129        4.765777  -0.000000
  130        4.832917  -0.000000
  131        4.961127  -0.000000
  132        5.006938  -0.000000

  0.4444444E+00  0.3698634E-15  0.1262379E-14  0.2469136E-01
    1      -10.316055   1.000000
    2       -9.821502   1.000000
    3       -9.764963   1.000000
    4       -9.346660   1.000000
    5       -9.193937   1.000000
    6       -8.847190   1.000000
    7       -8.301502   1.000000
    8       -8.029662   1.000000
    9       -7.990709   1.000000
   10       -7.931099   1.000000
   11       -7.895391   1.000000
   12       -7.856408   1.000000
   13       -7.804263   1.000000
   14       -7.695144   1.000000
   15       -7.632277   1.000000
   16       -7.347487   1.000000
   17       -6.429215   1.000000
   18       -6.174471   1.000000
   19       -6.009217   1.000000
   20       -5.995778   1.000000
   21       -5.404235   1.000000
   22       -5.330744   1.000000
   23       -5.256684   1.000000
   24       -5.248325   1.000000
   25       -5.225853   1.000000
   26       -5.158328   1.000000
   27       -4.283207   1.000000
   28       -4.130668   1.000000
   29       -4.035250   1.000000
   30       -3.854633   1.000000
   31       -3.838272   1.000000
   32       -3.795978   1.000000
   33       -3.737486   1.000000
   34       -3.588577   1.000000
   35       -3.559414   1.000000
   36       -3.411386   1.000000
   37       -3.375451   1.000000
   38       -3.299707   1.000000
   39       -3.248856   1.000000
   40       -3.227502   1.000000
   41       -3.151184   1.000000
   42       -3.064348   1.000000
   43       -2.883694   1.000000
   44       -2.798724   1.000000
   45       -2.501416   1.000000
   46       -2.334927   1.000000
   47       -2.175836   1.000000
   48       -2.154712   1.000000
   49       -2.038511   1.000000
   50       -1.971164   1.000000
   51       -1.905794   1.000000
   52       -1.816994   1.000000
   53       -1.729203   1.000000
   54       -1.682883   1.000000
   55       -1.623550   1.000000
   56       -1.584703   1.000000
   57       -1.527084   1.000000
   58       -1.486504   1.000000
   59       -1.413893   1.000000
   60       -1.345942   1.000000
   61       -1.241857   1.000000
   62       -1.214964   1.000000
   63       -1.145528   1.000000
   64       -1.102053   1.000000
   65       -1.059963   1.000000
   66       -0.945763   1.000000
   67       -0.916543   1.000000
   68       -0.836190   1.000000
   69       -0.793967   1.000000
   70       -0.652189   1.000000
   71       -0.558224   1.000000
   72       -0.476226   1.000000
   73       -0.375644   1.000000
   74       -0.262143   1.000000
   75       -0.193225   1.000000
   76       -0.136171   1.000000
   77        0.072968   1.000000
   78        0.081231   1.000000
   79        0.134803   1.000000
   80        0.465088   1.000000
   81        0.538977   1.000000
   82        0.634601   1.000000
   83        0.870949   1.000000
   84        0.922839   1.000000
   85        1.125547   1.000000
   86        1.235695   1.000000
   87        1.314829   1.000000
   88        1.386284   1.000000
   89        1.513876   1.000000
   90        1.609459   1.000000
   91        1.650166   1.000000
   92        1.732688   1.000000
   93        1.777302   1.000000
   94        1.878277   1.000000
   95        2.244547   1.000011
   96        2.248322   1.000012
   97        2.600775   1.024100
   98        2.631457   1.030853
   99        2.693399   1.033294
  100        2.731102   1.015648
  101        2.751157   0.996343
  102        3.007541   0.154913
  103        3.110480  -0.021834
  104        3.229757  -0.024581
  105        3.419460  -0.001079
  106        3.464682  -0.000367
  107        3.560673  -0.000026
  108        3.602938  -0.000007
  109        3.657924  -0.000001
  110        3.673533  -0.000001
  111        3.737951  -0.000000
  112        3.767994  -0.000000
  113        3.830058  -0.000000
  114        3.971110  -0.000000
  115        3.981281  -0.000000
  116        4.077301  -0.000000
  117        4.137848  -0.000000
  118        4.170895  -0.000000
  119        4.239315  -0.000000
  120        4.268049  -0.000000
  121        4.342674  -0.000000
  122        4.372379  -0.000000
  123        4.430463  -0.000000
  124        4.532252  -0.000000
  125        4.652636  -0.000000
  126        4.666274  -0.000000
  127        4.697373  -0.000000
  128        4.762929  -0.000000
  129        4.807423  -0.000000
  130        4.844556  -0.000000
  131        5.026532  -0.000000
  132        5.180976  -0.000000

  0.3742002E-15  0.1111111E+00  0.1262379E-14  0.2469136E-01
    1      -11.121381   1.000000
    2      -10.542181   1.000000
    3       -9.757802   1.000000
    4       -8.802819   1.000000
    5       -8.257125   1.000000
    6       -8.216011   1.000000
    7       -7.965824   1.000000
    8       -7.958012   1.000000
    9       -7.700669   1.000000
   10       -7.542745   1.000000
   11       -7.517493   1.000000
   12       -7.503516   1.000000
   13       -7.455242   1.000000
   14       -7.439758   1.000000
   15       -6.947950   1.000000
   16       -6.818175   1.000000
   17       -6.755747   1.000000
   18       -6.565487   1.000000
   19       -6.524706   1.000000
   20       -6.399393   1.000000
   21       -6.239606   1.000000
   22       -5.987560   1.000000
   23       -5.867847   1.000000
   24       -5.708640   1.000000
   25       -5.598189   1.000000
   26       -5.491177   1.000000
   27       -5.426577   1.000000
   28       -5.412298   1.000000
   29       -5.243699   1.000000
   30       -5.063252   1.000000
   31       -4.705755   1.000000
   32       -4.170949   1.000000
   33       -4.116356   1.000000
   34       -4.053419   1.000000
   35       -3.964680   1.000000
   36       -3.861084   1.000000
   37       -3.588375   1.000000
   38       -3.143698   1.000000
   39       -2.906623   1.000000
   40       -2.817591   1.000000
   41       -2.610271   1.000000
   42       -2.524169   1.000000
   43       -2.367022   1.000000
   44       -2.309413   1.000000
   45       -2.214107   1.000000
   46       -2.160732   1.000000
   47       -2.078775   1.000000
   48       -2.036358   1.000000
   49       -1.855577   1.000000
   50       -1.710528   1.000000
   51       -1.641666   1.000000
   52       -1.594020   1.000000
   53       -1.544661   1.000000
   54       -1.446863   1.000000
   55       -1.369033   1.000000
   56       -1.288094   1.000000
   57       -1.260929   1.000000
   58       -1.209023   1.000000
   59       -1.099052   1.000000
   60       -1.039750   1.000000
   61       -1.013375   1.000000
   62       -0.985258   1.000000
   63       -0.921803   1.000000
   64       -0.786379   1.000000
   65       -0.734798   1.000000
   66       -0.723423   1.000000
   67       -0.657251   1.000000
   68       -0.527141   1.000000
   69       -0.461396   1.000000
   70       -0.368679   1.000000
   71       -0.338821   1.000000
   72       -0.261575   1.000000
   73       -0.154390   1.000000
   74       -0.099223   1.000000
   75        0.027426   1.000000
   76        0.177054   1.000000
   77        0.267320   1.000000
   78        0.276595   1.000000
   79        0.484703   1.000000
   80        0.547187   1.000000
   81        0.669635   1.000000
   82        0.703584   1.000000
   83        1.047107   1.000000
   84        1.290407   1.000000
   85        1.378549   1.000000
   86        1.421435   1.000000
   87        1.496620   1.000000
   88        1.581431   1.000000
   89        1.737367   1.000000
   90        1.789229   1.000000
   91        1.877666   1.000000
   92        1.916117   1.000000
   93        1.934404   1.000000
   94        1.996160   1.000000
   95        2.157882   1.000001
   96        2.254910   1.000015
   97        2.506173   1.006764
   98        2.712745   1.026877
   99        2.988147   0.216665
  100        3.025470   0.105779
  101        3.149732  -0.034905
  102        3.217737  -0.027331
  103        3.302711  -0.009896
  104        3.412230  -0.001268
  105        3.609533  -0.000005
  106        3.669532  -0.000001
  107        3.794177  -0.000000
  108        3.860383  -0.000000
  109        3.892035  -0.000000
  110        3.906991  -0.000000
  111        3.930092  -0.000000
  112        3.988094  -0.000000
  113        4.012857  -0.000000
  114        4.042555  -0.000000
  115        4.123752  -0.000000
  116        4.130367  -0.000000
  117        4.158746  -0.000000
  118        4.190343  -0.000000
  119        4.246592  -0.000000
  120        4.315187  -0.000000
  121        4.331290  -0.000000
  122        4.353055  -0.000000
  123        4.401065  -0.000000
  124        4.435073  -0.000000
  125        4.475440  -0.000000
  126        4.535310  -0.000000
  127        4.629548  -0.000000
  128        4.663858  -0.000000
  129        4.831621  -0.000000
  130        4.952923  -0.000000
  131        5.121997  -0.000000
  132        5.171277  -0.000000

  0.1111111E+00  0.1111111E+00  0.1262379E-14  0.2469136E-01
    1      -11.006992   1.000000
    2      -10.438474   1.000000
    3       -9.675608   1.000000
    4       -8.726235   1.000000
    5       -8.345555   1.000000
    6       -8.262455   1.000000
    7       -8.193741   1.000000
    8       -8.190629   1.000000
    9       -8.086020   1.000000
   10       -7.904979   1.000000
   11       -7.788729   1.000000
   12       -7.590469   1.000000
   13       -7.357290   1.000000
   14       -7.167696   1.000000
   15       -7.079901   1.000000
   16       -6.972031   1.000000
   17       -6.492321   1.000000
   18       -6.484287   1.000000
   19       -6.435958   1.000000
   20       -6.254219   1.000000
   21       -5.900014   1.000000
   22       -5.834896   1.000000
   23       -5.798459   1.000000
   24       -5.531082   1.000000
   25       -5.498635   1.000000
   26       -5.415723   1.000000
   27       -5.343486   1.000000
   28       -5.224808   1.000000
   29       -5.030651   1.000000
   30       -5.029372   1.000000
   31       -4.644851   1.000000
   32       -4.240695   1.000000
   33       -3.860984   1.000000
   34       -3.695169   1.000000
   35       -3.660228   1.000000
   36       -3.612850   1.000000
   37       -3.456409   1.000000
   38       -3.173197   1.000000
   39       -2.990294   1.000000
   40       -2.946979   1.000000
   41       -2.825846   1.000000
   42       -2.810653   1.000000
   43       -2.459267   1.000000
   44       -2.267790   1.000000
   45       -2.195948   1.000000
   46       -2.115647   1.000000
   47       -2.104374   1.000000
   48       -2.010819   1.000000
   49       -1.931443   1.000000
   50       -1.811507   1.000000
   51       -1.659878   1.000000
   52       -1.638237   1.000000
   53       -1.618618   1.000000
   54       -1.473701   1.000000
   55       -1.451570   1.000000
   56       -1.423774   1.000000
   57       -1.335377   1.000000
   58       -1.295122   1.000000
   59       -1.211568   1.000000
   60       -1.011160   1.000000
   61       -0.978276   1.000000
   62       -0.933101   1.000000
   63       -0.920357   1.000000
   64       -0.866741   1.000000
   65       -0.820122   1.000000
   66       -0.773053   1.000000
   67       -0.729049   1.000000
   68       -0.597002   1.000000
   69       -0.503580   1.000000
   70       -0.444087   1.000000
   71       -0.380712   1.000000
   72       -0.302940   1.000000
   73       -0.249039   1.000000
   74       -0.234848   1.000000
   75       -0.093046   1.000000
   76        0.022005   1.000000
   77        0.117737   1.000000
   78        0.372667   1.000000
   79        0.493487   1.000000
   80        0.584420   1.000000
   81        0.588198   1.000000
   82        0.625921   1.000000
   83        0.869795   1.000000
   84        0.985429   1.000000
   85        1.242247   1.000000
   86        1.294461   1.000000
   87        1.469746   1.000000
   88        1.603956   1.000000
   89        1.696970   1.000000
   90        1.738699   1.000000
   91        1.768276   1.000000
   92        1.785176   1.000000
   93        1.787340   1.000000
   94        1.917960   1.000000
   95        2.067625   1.000000
   96        2.349849   1.000231
   97        2.496403   1.005721
   98        2.797253   0.917877