    3    3   60    1
  0.8144830E+01  0.3039000E-09  0.3039000E-09  0.3055000E-09  0.5000000E-15
   1.0000000000000000E-004
  CAR 
 Name                                    
     12    216     10

  0.3742002E-15  0.3742002E-15  0.3742002E-15  0.2962963E-03
    1       -5.761090   1.000000
    2        3.796041   1.000000
    3        3.796044   1.000000
    4        5.789505   1.000000
    5        7.356510   1.000000
    6        7.957135   1.000000
    7        7.957136   1.000000
    8       11.316327  -0.000000
    9       11.316330  -0.000000
   10       12.805799   0.000000

  0.6666667E-01  0.3766815E-15  0.3742002E-15  0.1777778E-02
    1       -5.675799   1.000000
    2        3.592725   1.000000
    3        3.836107   1.000000
    4        5.474353   1.000000
    5        7.382773   1.000000
    6        7.925450   1.000000
    7        8.358400   1.000000
    8       10.784808  -0.000000
    9       10.848206  -0.000000
   10       13.276849   0.000000

  0.1333333E+00  0.3754153E-15  0.3742002E-15  0.1777778E-02
    1       -5.423361   1.000000
    2        3.051620   1.000000
    3        3.942875   1.000000
    4        4.876491   1.000000
    5        7.366904   1.000000
    6        7.837274   1.000000
    7        9.192784   0.348899
    8       10.055995  -0.000000
    9       10.191352  -0.000000
   10       13.847856   0.000000

  0.2000000E+00  0.3870416E-15  0.3742002E-15  0.1777778E-02
    1       -5.013792   1.000000
    2        2.306337   1.000000
    3        4.079503   1.000000
    4        4.287303   1.000000
    5        7.046429   1.000000
    6        7.710835   1.000000
    7        9.708843  -0.000000
    8        9.826829  -0.000000
    9       10.087589  -0.000000
   10       14.265191   0.000000

  0.2666667E+00  0.4120044E-15  0.3742002E-15  0.1777778E-02
    1       -4.462875   1.000000
    2        1.460296   1.000000
    3        3.789002   1.000000
    4        4.199734   1.000000
    5        6.411305   1.000000
    6        7.570419   1.000000
    7        9.456003  -0.000254
    8       10.223812  -0.000000
    9       10.780752  -0.000000
   10       14.536901   0.000000

  0.3333333E+00  0.4025434E-15  0.3742002E-15  0.1777778E-02
    1       -3.791344   1.000000
    2        0.569022   1.000000
    3        3.406925   1.000000
    4        4.272670   1.000000
    5        5.752516   1.000000
    6        7.440560   1.000000
    7        9.410341  -0.002138
    8       10.995091  -0.000000
    9       11.055448  -0.000000
   10       14.719730   0.000000

  0.4000000E+00  0.3732510E-15  0.3742002E-15  0.1777778E-02
    1       -3.024916   1.000000
    2       -0.338311   1.000000
    3        3.149987   1.000000
    4        4.299808   1.000000
    5        5.252186   1.000000
    6        7.341883   1.000000
    7        9.485864  -0.000049
    8       11.017164  -0.000000
    9       11.912217   0.000000
   10       14.890479   0.000000

  0.4666667E+00  0.3915456E-15  0.3742002E-15  0.1777778E-02
    1       -2.209557   1.000000
    2       -1.221907   1.000000
    3        3.021153   1.000000
    4        4.303877   1.000000
    5        4.987459   1.000000
    6        7.288847   1.000000
    7        9.565912  -0.000000
    8       10.931619  -0.000000
    9       12.641055   0.000000
   10       15.159349   0.000000

  0.6666667E-01  0.6666667E-01  0.3742002E-15  0.1777778E-02
    1       -5.506901   1.000000
    2        3.232794   1.000000
    3        3.895370   1.000000
    4        5.044436   1.000000
    5        7.395049   1.000000
    6        7.849483   1.000000
    7        8.967480   1.006309
    8       10.202689  -0.000000
    9       10.366750  -0.000000
   10       13.949311   0.000000

  0.1333333E+00  0.6666667E-01  0.3742002E-15  0.3555556E-02
    1       -5.175656   1.000000
    2        2.620482   1.000000
    3        3.969453   1.000000
    4        4.498775   1.000000
    5        7.267657   1.000000
    6        7.699053   1.000000
    7        9.558428  -0.000000
    8        9.842725  -0.000000
    9       10.080845  -0.000000
   10       14.346125   0.000000

  0.2000000E+00  0.6666667E-01  0.3742002E-15  0.3555556E-02
    1       -4.694665   1.000000
    2        1.860537   1.000000
    3        3.996184   1.000000
    4        4.006308   1.000000
    5        6.858157   1.000000
    6        7.505323   1.000000
    7        9.188088   0.387001
    8       10.246655  -0.000000
    9       10.704399  -0.000000
   10       14.686315   0.000000

  0.2666667E+00  0.6666667E-01  0.3742002E-15  0.3555556E-02
    1       -4.081892   1.000000
    2        1.022518   1.000000
    3        3.589069   1.000000
    4        3.960476   1.000000
    5        6.326721   1.000000
    6        7.302447   1.000000
    7        9.107294   0.950115
    8       10.817048  -0.000000
    9       11.274097  -0.000000
   10       14.616912   0.000000

  0.3333333E+00  0.6666667E-01  0.3742002E-15  0.3555556E-02
    1       -3.359950   1.000000
    2        0.143266   1.000000
    3        3.294691   1.000000
    4        3.839659   1.000000
    5        5.889214   1.000000
    6        7.125123   1.000000
    7        9.214837   0.188127
    8       11.419028  -0.000000
    9       11.606527  -0.000000
   10       15.003399   0.000000

  0.4000000E+00  0.6666667E-01  0.3742002E-15  0.3555556E-02
    1       -2.558482   1.000000
    2       -0.749888   1.000000
    3        3.117857   1.000000
    4        3.713508   1.000000
    5        5.625897   1.000000
    6        7.004185   1.000000
    7        9.371481  -0.008831
    8       11.363808  -0.000000
    9       12.375098   0.000000
   10       15.222037   0.000000

  0.4666667E+00  0.6666667E-01  0.3742002E-15  0.1777778E-02
    1       -1.856510   1.000000
    2       -1.481947   1.000000
    3        3.058992   1.000000
    4        3.660787   1.000000
    5        5.540119   1.000000
    6        6.961259   1.000000
    7        9.442846  -0.000493
    8       11.324773  -0.000000
    9       12.725513   0.000000
   10       15.493564   0.000000

  0.1333333E+00  0.1333333E+00  0.3742002E-15  0.1777778E-02
    1       -4.772425   1.000000
    2        2.046185   1.000000
    3        3.856625   1.000000
    4        4.089163   1.000000
    5        7.122037   1.000000
    6        7.419172   1.000000
    7        8.947189   1.002991
    8       10.342970  -0.000000
    9       10.738135  -0.000000
   10       14.687817   0.000000

  0.2000000E+00  0.1333333E+00  0.3742002E-15  0.3555556E-02
    1       -4.227769   1.000000
    2        1.372380   1.000000
    3        3.581956   1.000000
    4        3.737639   1.000000
    5        6.950739   1.000000
    6        7.069328   1.000000
    7        8.577297   1.000000
    8       10.885931  -0.000000
    9       11.629696  -0.000000
   10       14.373553   0.000000

  0.2666667E+00  0.1333333E+00  0.3742002E-15  0.3555556E-02
    1       -3.560926   1.000000
    2        0.616265   1.000000
    3        3.231950   1.000000
    4        3.476139   1.000000
    5        6.706126   1.000000
    6        6.722769   1.000000
    7        8.598577   1.000000
    8       11.564301  -0.000000
    9       12.179335   0.000000
   10       14.537398   0.000000

  0.3333333E+00  0.1333333E+00  0.3742002E-15  0.3555556E-02
    1       -2.796422   1.000000
    2       -0.207883   1.000000
    3        2.930857   1.000000
    4        3.309164   1.000000
    5        6.446034   1.000000
    6        6.462869   1.000000
    7        8.852740   1.000026
    8       12.191328   0.000000
    9       12.289283   0.000000
   10       15.152452   0.000000

  0.4000000E+00  0.1333333E+00  0.3742002E-15  0.3555556E-02
    1       -1.970224   1.000000
    2       -1.065899   1.000000
    3        2.762930   1.000000
    4        3.229474   1.000000
    5        6.292404   1.000000
    6        6.321614   1.000000
    7        9.072891   1.026811
    8       12.261828   0.000000
    9       12.560415   0.000000
   10       15.676961   0.000000

  0.2000000E+00  0.2000000E+00  0.3742002E-15  0.1777778E-02
    1       -3.627844   1.000000
    2        0.850990   1.000000
    3        2.943914   1.000000
    4        3.564527   1.000000
    5        6.536585   1.000000
    6        7.239316   1.000000
    7        8.107919   1.000000
    8       11.579938  -0.000000
    9       12.649413   0.000000
   10       14.178847   0.000000

  0.2666667E+00  0.2000000E+00  0.3742002E-15  0.3555556E-02
    1       -2.915657   1.000000
    2        0.252869   1.000000
    3        2.336711   1.000000
    4        3.486203   1.000000
    5        6.032427   1.000000
    6        7.275592   1.000000
    7        8.146242   1.000000
    8       12.127787   0.000000
    9       13.291142   0.000000
   10       14.450255   0.000000

  0.3333333E+00  0.2000000E+00  0.3742002E-15  0.3555556E-02
    1       -2.120343   1.000000
    2       -0.467735   1.000000
    3        1.936604   1.000000
    4        3.476602   1.000000
    5        5.663982   1.000000
    6        7.092925   1.000000
    7        8.516720   1.000000
    8       12.366286   0.000000
    9       13.358098   0.000000
   10       15.176935   0.000000

  0.4000000E+00  0.2000000E+00  0.3742002E-15  0.1777778E-02
    1       -1.302631   1.000000
    2       -1.264430   1.000000
    3        1.802907   1.000000
    4        3.483864   1.000000
    5        5.526187   1.000000
    6        7.015976   1.000000
    7        8.695736   1.000000
    8       12.396566   0.000000
    9       13.343288   0.000000
   10       15.529320   0.000000

  0.2666667E+00  0.2666667E+00  0.3742002E-15  0.1777778E-02
    1       -2.172766   1.000000
    2       -0.117675   1.000000
    3        1.510050   1.000000
    4        3.619435   1.000000
    5        5.383918   1.000000
    6        7.787869   1.000000
    7        7.884979   1.000000
    8       12.289779   0.000000
    9       14.373537   0.000000
   10       14.389624   0.000000

  0.3333333E+00  0.2666667E+00  0.3742002E-15  0.3555556E-02
    1       -1.385679   1.000000
    2       -0.637581   1.000000
    3        1.005425   1.000000
    4        3.805829   1.000000
    5        4.923949   1.000000
    6        7.643523   1.000000
    7        8.255528   1.000000
    8       12.192373   0.000000
    9       14.337129   0.000000
   10       15.136591   0.000000

  0.3333333E+00  0.3333333E+00  0.3742002E-15  0.5925926E-03
    1       -0.817207   1.000000
    2       -0.817204   1.000000
    3        0.491896   1.000000
    4        4.293478   1.000000
    5        4.293481   1.000000
    6        8.015096   1.000000
    7        8.015097   1.000000
    8       12.062066   0.000000
    9       14.935693   0.000000
   10       14.935693   0.000000

  0.3742002E-15  0.3742002E-15  0.6666667E-01  0.5925926E-03
    1       -5.699316   1.000000
    2        3.849902   1.000000
    3        3.849904   1.000000
    4        5.266906   1.000000
    5        7.759799   1.000000
    6        7.759801   1.000000
    7        7.849149   1.000000
    8       11.168921  -0.000000
    9       11.168924  -0.000000
   10       13.259310   0.000000

  0.6666667E-01  0.3766815E-15  0.6666667E-01  0.3555556E-02
    1       -5.615147   1.000000
    2        3.640054   1.000000
    3        3.883889   1.000000
    4        5.072418   1.000000
    5        7.454066   1.000000
    6        7.721245   1.000000
    7        8.453047   1.000000
    8       10.775110  -0.000000
    9       10.843710  -0.000000
   10       13.426148   0.000000

  0.1333333E+00  0.3754153E-15  0.6666667E-01  0.3555556E-02
    1       -5.366171   1.000000
    2        3.078590   1.000000
    3        3.970083   1.000000
    4        4.638815   1.000000
    5        7.259268   1.000000
    6        7.628471   1.000000
    7        9.271982  -0.022192
    8       10.195712  -0.000000
    9       10.320764  -0.000000
   10       13.864708   0.000000

  0.2000000E+00  0.3870416E-15  0.6666667E-01  0.3555556E-02
    1       -4.962494   1.000000
    2        2.306595   1.000000
    3        4.066749   1.000000
    4        4.168736   1.000000
    5        6.900186   1.000000
    6        7.538686   1.000000
    7        9.849226  -0.000000
    8        9.902079  -0.000000
    9       10.270233  -0.000000
   10       14.114369   0.000000

  0.2666667E+00  0.4120044E-15  0.6666667E-01  0.3555556E-02
    1       -4.420031   1.000000
    2        1.438461   1.000000
    3        3.756042   1.000000
    4        4.127505   1.000000
    5        6.308035   1.000000
    6        7.503619   1.000000
    7        9.639340  -0.000000
    8       10.264120  -0.000000
    9       10.824667  -0.000000
   10       14.261302   0.000000

  0.3333333E+00  0.4025434E-15  0.6666667E-01  0.3555556E-02
    1       -3.759164   1.000000
    2        0.534821   1.000000
    3        3.436706   1.000000
    4        4.134333   1.000000
    5        5.689932   1.000000
    6        7.523527   1.000000
    7        9.531713  -0.000003
    8       10.859421  -0.000000
    9       11.150868  -0.000000
   10       14.708453   0.000000

  0.4000000E+00  0.3732510E-15  0.6666667E-01  0.3555556E-02
    1       -3.003781   1.000000
    2       -0.375760   1.000000
    3        3.223560   1.000000
    4        4.108102   1.000000
    5        5.210963   1.000000
    6        7.556727   1.000000
    7        9.541110  -0.000001
    8       10.847921  -0.000000
    9       11.997473   0.000000
   10       14.921171   0.000000

  0.4666667E+00  0.3915456E-15  0.6666667E-01  0.3555556E-02
    1       -2.187440   1.000000
    2       -1.266830   1.000000
    3        3.118142   1.000000
    4        4.083692   1.000000
    5        4.953814   1.000000
    6        7.574730   1.000000
    7        9.584239  -0.000000
    8       10.749457  -0.000000
    9       12.796364   0.000000
   10       14.782039   0.000000

  0.6666667E-01  0.6666667E-01  0.6666667E-01  0.3555556E-02
    1       -5.448546   1.000000
    2        3.272603   1.000000
    3        3.914203   1.000000
    4        4.778163   1.000000
    5        7.337236   1.000000
    6        7.618573   1.000000
    7        9.070587   1.028806
    8       10.292332  -0.000000
    9       10.475836  -0.000000
   10       13.986071   0.000000

  0.1333333E+00  0.6666667E-01  0.6666667E-01  0.7111111E-02
    1       -5.121990   1.000000
    2        2.642690   1.000000
    3        3.882346   1.000000
    4        4.429847   1.000000
    5        7.144046   1.000000
    6        7.454652   1.000000
    7        9.729647  -0.000000
    8        9.915197  -0.000000
    9       10.261872  -0.000000
   10       14.300911   0.000000

  0.2000000E+00  0.6666667E-01  0.6666667E-01  0.7111111E-02
    1       -4.648269   1.000000
    2        1.857661   1.000000
    3        3.699272   1.000000
    4        4.202517   1.000000
    5        6.703768   1.000000
    6        7.362565   1.000000
    7        9.432871  -0.000794
    8       10.313332  -0.000000
    9       10.769039  -0.000000
   10       14.305289   0.000000

  0.2666667E+00  0.6666667E-01  0.6666667E-01  0.7111111E-02
    1       -4.045293   1.000000
    2        0.999117   1.000000
    3        3.456932   1.000000
    4        4.021756   1.000000
    5        6.154528   1.000000
    6        7.348397   1.000000
    7        9.302775  -0.034995
    8       10.841144  -0.000000
    9       11.243126  -0.000000
   10       14.436748   0.000000

  0.3333333E+00  0.6666667E-01  0.6666667E-01  0.7111111E-02
    1       -3.334956   1.000000
    2        0.109811   1.000000
    3        3.273656   1.000000
    4        3.814507   1.000000
    5        5.688286   1.000000
    6        7.362086   1.000000
    7        9.321412  -0.029047
    8       11.234629  -0.000000
    9       11.698572  -0.000000
   10       14.897776   0.000000

  0.4000000E+00  0.6666667E-01  0.6666667E-01  0.7111111E-02
    1       -2.543208   1.000000
    2       -0.785551   1.000000
    3        3.178062   1.000000
    4        3.629414   1.000000
    5        5.394895   1.000000
    6        7.364712   1.000000
    7        9.414329  -0.001810
    8       11.165263  -0.000000
    9       12.499150   0.000000
   10       14.952334   0.000000

  0.4666667E+00  0.6666667E-01  0.6666667E-01  0.3555556E-02
    1       -1.797364   1.000000
    2       -1.565122   1.000000
    3        3.153318   1.000000
    4        3.551836   1.000000
    5        5.296684   1.000000
    6        7.362114   1.000000
    7        9.464653  -0.000161
    8       11.120019  -0.000000
    9       12.913418   0.000000
   10       14.879098   0.000000

  0.1333333E+00  0.1333333E+00  0.6666667E-01  0.3555556E-02
    1       -4.724872   1.000000
    2        2.064931   1.000000
    3        3.543228   1.000000
    4        4.295737   1.000000
    5        7.071979   1.000000
    6        7.078865   1.000000
    7        9.266489  -0.014534
    8       10.417246  -0.000000
    9       10.800024  -0.000000
   10       14.498484   0.000000

  0.2000000E+00  0.1333333E+00  0.6666667E-01  0.7111111E-02
    1       -4.189071   1.000000
    2        1.374626   1.000000
    3        3.201543   1.000000
    4        4.056724   1.000000
    5        6.592813   1.000000
    6        7.113296   1.000000
    7        8.924464   1.001151
    8       10.930119  -0.000000
    9       11.601604  -0.000000
   10       14.230459   0.000000

  0.2666667E+00  0.1333333E+00  0.6666667E-01  0.7111111E-02
    1       -3.533727   1.000000
    2        0.598383   1.000000
    3        2.945101   1.000000
    4        3.741974   1.000000
    5        6.122865   1.000000
    6        7.188608   1.000000
    7        8.825687   1.000005
    8       11.580125  -0.000000
    9       12.064822   0.000000
   10       14.418615   0.000000

  0.3333333E+00  0.1333333E+00  0.6666667E-01  0.7111111E-02
    1       -2.782346   1.000000
    2       -0.236177   1.000000
    3        2.780012   1.000000
    4        3.468403   1.000000
    5        5.765901   1.000000
    6        7.188966   1.000000
    7        8.957429   1.004416
    8       11.977478   0.000000
    9       12.388024   0.000000
   10       14.889424   0.000000

  0.4000000E+00  0.1333333E+00  0.6666667E-01  0.7111111E-02
    1       -1.963688   1.000000
    2       -1.097593   1.000000
    3        2.699049   1.000000
    4        3.316398   1.000000
    5        5.575700   1.000000
    6        7.154156   1.000000
    7        9.122810   0.879769
    8       11.966985   0.000000
    9       12.796997   0.000000
   10       15.112093   0.000000

  0.2000000E+00  0.2000000E+00  0.6666667E-01  0.3555556E-02
    1       -3.599931   1.000000
    2        0.850385   1.000000
    3        2.676192   1.000000
    4        3.805021   1.000000
    5        6.189351   1.000000
    6        7.286967   1.000000
    7        8.510204   1.000000
    8       11.605890  -0.000000
    9       12.530614   0.000000
   10       14.058745   0.000000

  0.2666667E+00  0.2000000E+00  0.6666667E-01  0.7111111E-02
    1       -2.901715   1.000000
    2        0.237882   1.000000
    3        2.202833   1.000000
    4        3.624492   1.000000
    5        5.717195   1.000000
    6        7.501986   1.000000
    7        8.388338   1.000000
    8       12.150462   0.000000
    9       13.117671   0.000000
   10       14.306184   0.000000

  0.3333333E+00  0.2000000E+00  0.6666667E-01  0.7111111E-02
    1       -2.122763   1.000000
    2       -0.491421   1.000000
    3        1.890670   1.000000
    4        3.547690   1.000000
    5        5.370192   1.000000
    6        7.463967   1.000000
    7        8.621853   1.000000
    8       12.365676   0.000000
    9       13.264379   0.000000
   10       14.916196   0.000000

  0.4000000E+00  0.2000000E+00  0.6666667E-01  0.3555556E-02
    1       -1.333559   1.000000
    2       -1.267992   1.000000
    3        1.785446   1.000000
    4        3.531891   1.000000
    5        5.241396   1.000000
    6        7.416718   1.000000
    7        8.771223   1.000000
    8       12.380113   0.000000
    9       13.297581   0.000000
   10       15.206066   0.000000

  0.2666667E+00  0.2666667E+00  0.6666667E-01  0.3555556E-02
    1       -2.176619   1.000000
    2       -0.139809   1.000000
    3        1.468140   1.000000
    4        3.681641   1.000000
    5        5.184967   1.000000
    6        7.982109   1.000000
    7        8.083452   1.000000
    8       12.329557   0.000000
    9       14.162634   0.000000
   10       14.264623   0.000000

  0.3333333E+00  0.2666667E+00  0.6666667E-01  0.7111111E-02
    1       -1.413785   1.000000
    2       -0.663490   1.000000
    3        1.019450   1.000000
    4        3.820080   1.000000
    5        4.786746   1.000000
    6        7.886012   1.000000
    7        8.375352   1.000000
    8       12.243644   0.000000
    9       14.218815   0.000000
   10       14.945779   0.000000

  0.3333333E+00  0.3333333E+00  0.6666667E-01  0.1185185E-02
    1       -0.863602   1.000000
    2       -0.863599   1.000000
    3        0.553583   1.000000
    4        4.244571   1.000000
    5        4.244573   1.000000
    6        8.181682   1.000000
    7        8.181683   1.000000
    8       12.124709   0.000000
    9       14.801351   0.000000
   10       14.801352   0.000000

  0.3742002E-15  0.3742002E-15  0.1333333E+00  0.5925926E-03
    1       -5.517188   1.000000
    2        4.010975   1.000000
    3        4.010977   1.000000
    4        4.331064   1.000000
    5        7.289903   1.000000
    6        7.289905   1.000000
    7        8.708807   1.000000
    8       10.754586  -0.000000
    9       10.754588  -0.000000
   10       13.264231   0.000000

  0.6666667E-01  0.3766815E-15  0.1333333E+00  0.3555556E-02
    1       -5.436540   1.000000
    2        3.773118   1.000000
    3        4.024438   1.000000
    4        4.253214   1.000000
    5        7.171098   1.000000
    6        7.250295   1.000000
    7        9.011485   1.021632
    8       10.575575  -0.000000
    9       10.669571  -0.000000
   10       13.538777   0.000000

  0.1333333E+00  0.3754153E-15  0.1333333E+00  0.3555556E-02
    1       -5.198232   1.000000
    2        3.133599   1.000000
    3        4.042851   1.000000
    4        4.085339   1.000000
    5        6.915544   1.000000
    6        7.188803   1.000000
    7        9.609714  -0.000000
    8       10.337517  -0.000000
    9       10.476344  -0.000000
   10       14.032704   0.000000

  0.2000000E+00  0.3870416E-15  0.1333333E+00  0.3555556E-02
    1       -4.812948   1.000000
    2        2.290185   1.000000
    3        3.877410   1.000000
    4        4.017954   1.000000
    5        6.526067   1.000000
    6        7.220896   1.000000
    7        9.955075  -0.000000
    8       10.255523  -0.000000
    9       10.630795  -0.000000
   10       13.929627   0.000000

  0.2666667E+00  0.4120044E-15  0.1333333E+00  0.3555556E-02
    1       -4.296938   1.000000
    2        1.377364   1.000000
    3        3.675416   1.000000
    4        3.924672   1.000000
    5        6.009642   1.000000
    6        7.411526   1.000000
    7       10.044307  -0.000000
    8       10.315256  -0.000000
    9       11.018609  -0.000000
   10       13.994514   0.000000

  0.3333333E+00  0.4025434E-15  0.1333333E+00  0.3555556E-02
    1       -3.670160   1.000000
    2        0.455868   1.000000
    3        3.516907   1.000000
    4        3.790965   1.000000
    5        5.482649   1.000000
    6        7.721973   1.000000
    7        9.861362  -0.000000
    8       10.684718  -0.000000
    9       11.303172  -0.000000
   10       14.471415   0.000000

  0.4000000E+00  0.3732510E-15  0.1333333E+00  0.3555556E-02
    1       -2.954061   1.000000
    2       -0.448956   1.000000
    3        3.418636   1.000000
    4        3.668397   1.000000
    5        5.063028   1.000000
    6        8.043472   1.000000
    7        9.721418  -0.000000
    8       10.573543  -0.000000
    9       12.114102   0.000000
   10       14.714591   0.000000

  0.4666667E+00  0.3915456E-15  0.1333333E+00  0.3555556E-02
    1       -2.171097   1.000000
    2       -1.322804   1.000000
    3        3.376210   1.000000
    4        3.597272   1.000000
    5        4.830704   1.000000
    6        8.250449   1.000000
    7        9.641683  -0.000000
    8       10.432755  -0.000000
    9       13.049784   0.000000
   10       14.260689   0.000000

  0.6666667E-01  0.6666667E-01  0.1333333E+00  0.3555556E-02
    1       -5.277040   1.000000
    2        3.388104   1.000000
    3        3.841415   1.000000
    4        4.282927   1.000000
    5        7.064280   1.000000
    6        7.115913   1.000000
    7        9.481994  -0.000061
    8       10.310154  -0.000000
    9       10.573702  -0.000000
   10       14.033374   0.000000

  0.1333333E+00  0.6666667E-01  0.1333333E+00  0.7111111E-02
    1       -4.965089   1.000000
    2        2.694757   1.000000
    3        3.572760   1.000000
    4        4.331783   1.000000
    5        6.763385   1.000000
    6        7.059058   1.000000
    7        9.948964  -0.000000
    8       10.197024  -0.000000
    9       10.564618  -0.000000
   10       14.253568   0.000000

  0.2000000E+00  0.6666667E-01  0.1333333E+00  0.7111111E-02
    1       -4.513967   1.000000
    2        1.840063   1.000000
    3        3.361647   1.000000
    4        4.253423   1.000000
    5        6.291723   1.000000
    6        7.179172   1.000000
    7        9.850338  -0.000000
    8       10.469991  -0.000000
    9       10.984049  -0.000000
   10       14.024506   0.000000

  0.2666667E+00  0.6666667E-01  0.1333333E+00  0.7111111E-02
    1       -3.941791   1.000000
    2        0.939033   1.000000
    3        3.217649   1.000000
    4        4.050890   1.000000
    5        5.770758   1.000000
    6        7.454758   1.000000
    7        9.744025  -0.000000
    8       10.862901  -0.000000
    9       11.281449  -0.000000
   10       14.184466   0.000000

  0.3333333E+00  0.6666667E-01  0.1333333E+00  0.7111111E-02
    1       -3.269485   1.000000
    2        0.037304   1.000000
    3        3.155830   1.000000
    4        3.792406   1.000000
    5        5.317935   1.000000
    6        7.795957   1.000000
    7        9.632716  -0.000000
    8       10.979806  -0.000000
    9       11.797548  -0.000000
   10       14.611274   0.000000

  0.4000000E+00  0.6666667E-01  0.1333333E+00  0.7111111E-02
    1       -2.519252   1.000000
    2       -0.845267   1.000000
    3        3.181584   1.000000
    4        3.546523   1.000000
    5        5.018458   1.000000
    6        8.071129   1.000000
    7        9.554234  -0.000001
    8       10.831516  -0.000000
    9       12.662631   0.000000
   10       14.542519   0.000000

  0.4666667E+00  0.6666667E-01  0.1333333E+00  0.3555556E-02
    1       -1.783995   1.000000
    2       -1.623468   1.000000
    3        3.246063   1.000000
    4        3.404161   1.000000
    5        4.914796   1.000000
    6        8.175188   1.000000
    7        9.527703  -0.000004
    8       10.764690  -0.000000
    9       13.260577   0.000000
   10       14.187276   0.000000

  0.1333333E+00  0.1333333E+00  0.1333333E+00  0.3555556E-02
    1       -4.586932   1.000000
    2        2.116719   1.000000
    3        3.086872   1.000000
    4        4.428622   1.000000
    5        6.473358   1.000000
    6        6.971650   1.000000
    7        9.749662  -0.000000
    8       10.591525  -0.000000
    9       10.996534  -0.000000
   10       14.243816   0.000000

  0.2000000E+00  0.1333333E+00  0.1333333E+00  0.7111111E-02
    1       -4.078676   1.000000
    2        1.377231   1.000000
    3        2.770070   1.000000
    4        4.286681   1.000000
    5        6.003314   1.000000
    6        7.171035   1.000000
    7        9.533550  -0.000002
    8       11.043051  -0.000000
    9       11.594285  -0.000000
   10       13.979652   0.000000

  0.2666667E+00  0.1333333E+00  0.1333333E+00  0.7111111E-02
    1       -3.459539   1.000000
    2        0.553575   1.000000
    3        2.603322   1.000000
    4        4.000015   1.000000
    5        5.534727   1.000000
    6        7.532497   1.000000
    7        9.372868  -0.008452
    8       11.602844  -0.000000
    9       11.882056  -0.000000
   10       14.167154   0.000000

  0.3333333E+00  0.1333333E+00  0.1333333E+00  0.7111111E-02
    1       -2.752078   1.000000
    2       -0.294216   1.000000
    3        2.540569   1.000000
    4        3.709746   1.000000
    5        5.175928   1.000000
    6        7.879892   1.000000
    7        9.284562  -0.032616
    8       11.668113  -0.000000
    9       12.457721   0.000000
   10       14.497919   0.000000

  0.4000000E+00  0.1333333E+00  0.1333333E+00  0.7111111E-02
    1       -1.986802   1.000000
    2       -1.129022   1.000000
    3        2.534317   1.000000
    4        3.526424   1.000000
    5        4.984244   1.000000
    6        8.071007   1.000000
    7        9.273886  -0.024371
    8       11.576548  -0.000000
    9       13.064129   0.000000
   10       14.469215   0.000000

  0.2000000E+00  0.2000000E+00  0.1333333E+00  0.3555556E-02
    1       -3.522917   1.000000
    2        0.845831   1.000000
    3        2.279719   1.000000
    4        4.100997   1.000000
    5        5.595746   1.000000
    6        7.439738   1.000000
    7        9.237922   0.065634
    8       11.672954  -0.000000
    9       12.321594   0.000000
   10       13.803702   0.000000

  0.2666667E+00  0.2000000E+00  0.1333333E+00  0.7111111E-02
    1       -2.868109   1.000000
    2        0.197122   1.000000
    3        1.958300   1.000000
    4        3.870625   1.000000
    5        5.180662   1.000000
    6        7.846897   1.000000
    7        9.018575   1.024905
    8       12.213956   0.000000
    9       12.765974   0.000000
   10       14.006370   0.000000
