 running on    4 total cores
 distrk:  each k-point on    4 cores,    1 groups
 distr:  one band on    2 cores,    2 groups
 using from now: INCAR     
 vasp.5.4.4.18Apr17-6-g9f103f2a35 (build Dec  7 2020 12:43:57) complex           
 POSCAR found type information on POSCAR  Mo B 
 POSCAR found :  2 types and       3 ions
 scaLAPACK will be used
 LDA part: xc-table for Pade appr. of Perdew
 POSCAR, INCAR and KPOINTS ok, starting setup
 FFT: planning ...
 WAVECAR not read
 augmentation electrons   12.018373587906812     
 soft         electrons   0.0000000000000000     
 augmentation electrons   12.018373587906812     
 soft         electrons   0.0000000000000000     
 augmentation electrons   12.018373587906812     
 soft         electrons   0.0000000000000000     
 augmentation electrons   12.018373587906812     
 soft         electrons   0.0000000000000000     
 total        electrons   12.018373587906812     
 total        electrons   12.018373587906812     
 total        electrons   12.018373587906812     
 total        electrons   12.018373587906812     
 augmentation electrons   169.75791458332097     
 soft         electrons   0.0000000000000000     
 augmentation electrons   169.75791458332097     
 soft         electrons   0.0000000000000000     
 augmentation electrons   169.75791458332097     
 soft         electrons   0.0000000000000000     
 augmentation electrons   169.75791458332097     
 soft         electrons   0.0000000000000000     
 total        electrons   169.75791458332097     
 total        electrons   169.75791458332097     
 total        electrons   169.75791458332097     
 total        electrons   169.75791458332097     
 entering main loop
       N       E                     dE             d eps       ncg     rms          rms(c)
DAV:   1     0.452547077284E+02    0.45255E+02   -0.56975E+03  4320   0.105E+03
DAV:   2    -0.112829127176E+02   -0.56538E+02   -0.53605E+02  5144   0.218E+02
DAV:   3    -0.135958286911E+02   -0.23129E+01   -0.21935E+01  6262   0.385E+01
DAV:   4    -0.136270185544E+02   -0.31190E-01   -0.30980E-01  5622   0.325E+00
DAV:   5    -0.136275090293E+02   -0.49047E-03   -0.49029E-03  5670   0.325E-01    0.313E+01
RMM:   6    -0.851129356814E+01    0.51162E+01   -0.15881E+01  4353   0.284E+01    0.596E+00
RMM:   7    -0.868726217732E+01   -0.17597E+00   -0.12063E+00  4337   0.685E+00    0.322E+00
RMM:   8    -0.876644757361E+01   -0.79185E-01   -0.27247E-01  4320   0.770E+00    0.409E+00
RMM:   9    -0.906004536754E+01   -0.29360E+00   -0.93484E-01  4320   0.151E+01    0.187E+00
RMM:  10    -0.928546472232E+01   -0.22542E+00   -0.50289E-01  4325   0.106E+01    0.143E+00
RMM:  11    -0.949581614433E+01   -0.21035E+00   -0.11520E+00  4320   0.163E+01    0.273E+00
RMM:  12    -0.943910831152E+01    0.56708E-01   -0.87989E-02  4321   0.464E+00    0.240E+00
RMM:  13    -0.909928094829E+01    0.33983E+00   -0.16475E+00  4320   0.204E+01    0.157E+00
RMM:  14    -0.903621089498E+01    0.63070E-01   -0.16450E-01  4320   0.546E+00    0.406E+00
RMM:  15    -0.912990872058E+01   -0.93698E-01   -0.60623E-02  4326   0.400E+00    0.282E+00
RMM:  16    -0.891638797328E+01    0.21352E+00   -0.52424E-01  4320   0.115E+01    0.293E+00
RMM:  17    -0.873197619675E+01    0.18441E+00   -0.81351E-01  4320   0.139E+01    0.148E+00
RMM:  18    -0.872523541819E+01    0.67408E-02   -0.29779E-02  4353   0.169E+00    0.179E+00
RMM:  19    -0.952960635345E+01   -0.80437E+00   -0.78453E+00  4323   0.432E+01    0.286E+00
RMM:  20    -0.949409850000E+01    0.35508E-01   -0.62049E+00  4348   0.357E+01    0.124E+01
RMM:  21    -0.897118990877E+01    0.52291E+00   -0.59213E+00  4384   0.320E+01    0.441E+01
RMM:  22    -0.904408455848E+01   -0.72895E-01   -0.18859E-01  4512   0.591E+00    0.440E+01
RMM:  23    -0.909638989690E+01   -0.52305E-01   -0.21751E-02  4332   0.180E+00    0.415E+01
RMM:  24    -0.957366375087E+01   -0.47727E+00   -0.29887E+00  4321   0.241E+01    0.180E+01
RMM:  25    -0.938461376499E+01    0.18905E+00   -0.95320E-01  4322   0.126E+01    0.342E+01
RMM:  26    -0.959006051381E+01   -0.20545E+00   -0.38878E-01  4320   0.902E+00    0.274E+01
RMM:  27    -0.959292611170E+01   -0.28656E-02   -0.39919E-02  4320   0.292E+00    0.323E+01
RMM:  28    -0.962358263061E+01   -0.30657E-01   -0.38609E-03  4331   0.926E-01    0.332E+01
RMM:  29    -0.945781167217E+01    0.16577E+00   -0.34680E-01  4320   0.802E+00    0.407E+01
RMM:  30    -0.944448994619E+01    0.13322E-01   -0.68789E-03  4393   0.121E+00    0.409E+01
RMM:  31    -0.967063430530E+01   -0.22614E+00   -0.19709E+00  4321   0.194E+01    0.246E+01
RMM:  32    -0.963998019145E+01    0.30654E-01   -0.12067E-01  4320   0.485E+00    0.325E+01
RMM:  33    -0.972066722626E+01   -0.80687E-01   -0.26941E-01  4320   0.752E+00    0.285E+01
RMM:  34    -0.970539956241E+01    0.15268E-01   -0.24951E+00  4322   0.232E+01    0.193E+01
RMM:  35    -0.968349743416E+01    0.21902E-01   -0.54464E-02  4336   0.356E+00    0.193E+01
RMM:  36    -0.959178806861E+01    0.91709E-01   -0.18673E-01  4323   0.657E+00    0.189E+01
RMM:  37    -0.957395405128E+01    0.17834E-01   -0.26125E-02  4347   0.230E+00    0.183E+01
RMM:  38    -0.953748924872E+01    0.36465E-01   -0.39119E-01  4325   0.936E+00    0.156E+01
RMM:  39    -0.947445548417E+01    0.63034E-01   -0.25636E-01  4320   0.769E+00    0.132E+01
RMM:  40    -0.943981705832E+01    0.34638E-01   -0.11789E-01  4335   0.517E+00    0.114E+01
RMM:  41    -0.944554455645E+01   -0.57275E-02   -0.59684E-02  4320   0.386E+00    0.107E+01
RMM:  42    -0.942617092712E+01    0.19374E-01   -0.12726E-01  4320   0.582E+00    0.109E+01
RMM:  43    -0.942286659357E+01    0.33043E-02   -0.40744E-03  4353   0.864E-01    0.110E+01
RMM:  44    -0.939817756837E+01    0.24689E-01   -0.35727E-01  4320   0.951E+00    0.883E+00
RMM:  45    -0.937455171720E+01    0.23626E-01   -0.19603E-01  4324   0.612E+00    0.736E+00
RMM:  46    -0.937207308578E+01    0.24786E-02   -0.45189E-03  4354   0.877E-01    0.735E+00
RMM:  47    -0.939213732737E+01   -0.20064E-01   -0.19521E-02  4320   0.217E+00    0.645E+00
RMM:  48    -0.936664953691E+01    0.25488E-01   -0.46953E-01  4320   0.109E+01    0.292E+00
RMM:  49    -0.919372105670E+01    0.17293E+00   -0.54760E-01  4320   0.113E+01    0.183E+00
RMM:  50    -0.914638976715E+01    0.47331E-01   -0.65501E-02  4363   0.318E+00    0.136E+00
RMM:  51    -0.924469224315E+01   -0.98302E-01   -0.64745E-02  4320   0.428E+00    0.160E+00
RMM:  52    -0.921348554725E+01    0.31207E-01   -0.14739E-02  4320   0.196E+00    0.154E+00
RMM:  53    -0.923054322142E+01   -0.17058E-01   -0.22913E-03  4334   0.693E-01    0.154E+00
RMM:  54    -0.923457707468E+01   -0.40339E-02   -0.32801E-04  4327   0.261E-01    0.170E+00
RMM:  55    -0.923511734383E+01   -0.54027E-03   -0.27457E-04  4323   0.260E-01    0.164E+00
RMM:  56    -0.931851028324E+01   -0.83393E-01   -0.60071E-02  4320   0.392E+00    0.195E+00
RMM:  57    -0.932071935433E+01   -0.22091E-02   -0.47198E-03  4322   0.105E+00    0.240E+00
RMM:  58    -0.934911403751E+01   -0.28395E-01   -0.61749E-02  4320   0.388E+00    0.861E-01
RMM:  59    -0.937297513107E+01   -0.23861E-01   -0.10100E-01  4321   0.477E+00    0.143E+00
RMM:  60    -0.937974778913E+01   -0.67727E-02   -0.56674E-02  4326   0.354E+00    0.170E+00
RMM:  61    -0.940733054894E+01   -0.27583E-01   -0.18755E-01  4325   0.655E+00    0.979E-01
RMM:  62    -0.940582954275E+01    0.15010E-02   -0.49358E-03  4347   0.101E+00    0.659E-01
RMM:  63    -0.940513753560E+01    0.69201E-03   -0.26047E-03  4322   0.785E-01    0.695E-02
RMM:  64    -0.940513844662E+01   -0.91102E-06   -0.12112E-04  4351   0.132E-01    0.106E-01
RMM:  65    -0.940477080498E+01    0.36764E-03   -0.21499E-03  4320   0.716E-01    0.125E-01
RMM:  66    -0.940483221661E+01   -0.61412E-04   -0.54907E-04  4320   0.372E-01    0.648E-02
RMM:  67    -0.940473070678E+01    0.10151E-03   -0.41850E-04  4325   0.291E-01    0.562E-02
RMM:  68    -0.940475232870E+01   -0.21622E-04   -0.21134E-05  4267   0.719E-02    0.632E-02
RMM:  69    -0.940471891967E+01    0.33409E-04   -0.74493E-05  4272   0.136E-01    0.464E-02
RMM:  70    -0.940470763419E+01    0.11285E-04   -0.35766E-05  4272   0.893E-02    0.360E-02
RMM:  71    -0.940468856695E+01    0.19067E-04   -0.17769E-04  4320   0.210E-01    0.114E-02
RMM:  72    -0.940468869483E+01   -0.12788E-06   -0.88233E-06  3988   0.369E-02
   1 F= -.94046887E+01 E0= -.94046773E+01  d E =-.940469E+01
 curvature:   0.00 expect dE= 0.000E+00 dE for cont linesearch  0.000E+00
 trial: gam= 0.00000 g(F)=  0.245E-43 g(S)=  0.970E+00 ort = 0.000E+00 (trialstep = 0.100E+01)
 search vector abs. value=  0.970E+00
 bond charge predicted
       N       E                     dE             d eps       ncg     rms          rms(c)
DAV:   1    -0.994870420836E+01   -0.54402E+00   -0.24364E+01  4360   0.462E+01    0.198E+01
RMM:   2    -0.934508504214E+01    0.60362E+00   -0.17442E+00  4320   0.102E+01    0.617E+00
RMM:   3    -0.933759135127E+01    0.74937E-02   -0.21314E-01  4325   0.551E+00    0.518E+00
RMM:   4    -0.941686046440E+01   -0.79269E-01   -0.37342E-01  4320   0.827E+00    0.191E+00
RMM:   5    -0.946818875148E+01   -0.51328E-01   -0.13439E-01  4339   0.500E+00    0.543E-01
RMM:   6    -0.945980771199E+01    0.83810E-02   -0.78887E-03  4358   0.865E-01    0.597E-01
RMM:   7    -0.945884424897E+01    0.96346E-03   -0.31804E-02  4320   0.271E+00    0.942E-01
RMM:   8    -0.941654484633E+01    0.42299E-01   -0.26709E-01  4320   0.685E+00    0.595E-01
RMM:   9    -0.941686068322E+01   -0.31584E-03   -0.10599E-01  4337   0.423E+00    0.186E-01
RMM:  10    -0.941606237530E+01    0.79831E-03   -0.26928E-03  4380   0.516E-01    0.139E-01
RMM:  11    -0.941547046746E+01    0.59191E-03   -0.20726E-02  4322   0.215E+00    0.227E-01
RMM:  12    -0.941516168819E+01    0.30878E-03   -0.87261E-03  4320   0.142E+00    0.658E-02
RMM:  13    -0.941524301897E+01   -0.81331E-04   -0.28959E-04  4330   0.270E-01    0.342E-02
RMM:  14    -0.941516978177E+01    0.73237E-04   -0.16886E-04  4322   0.189E-01    0.185E-02
RMM:  15    -0.941516085135E+01    0.89304E-05   -0.24558E-04  4330   0.195E-01    0.608E-03
RMM:  16    -0.941515861000E+01    0.22413E-05   -0.66417E-06  3871   0.346E-02    0.415E-03
RMM:  17    -0.941515842076E+01    0.18924E-06   -0.20155E-05  4220   0.673E-02    0.180E-03
RMM:  18    -0.941515806407E+01    0.35669E-06   -0.38730E-07  2702   0.885E-03
   2 F= -.94151581E+01 E0= -.94151035E+01  d E =-.104694E-01
 trial-energy change:   -0.010469  1 .order   -0.048008   -0.969654    0.873638
 step:   0.4955(harm=  0.5260)  dis= 0.00000  next Energy=    -9.640354 (dE=-0.236E+00)
 bond charge predicted
       N       E                     dE             d eps       ncg     rms          rms(c)
DAV:   1    -0.976122733375E+01   -0.34607E+00   -0.63020E+00  4348   0.252E+01    0.748E+00
RMM:   2    -0.962741018203E+01    0.13382E+00   -0.22710E-01  4320   0.379E+00    0.231E+00
RMM:   3    -0.962246971035E+01    0.49405E-02   -0.42216E-02  4322   0.189E+00    0.129E+00
RMM:   4    -0.963066886765E+01   -0.81992E-02   -0.46257E-02  4320   0.279E+00    0.871E-01
RMM:   5    -0.963800469039E+01   -0.73358E-02   -0.25194E-02  4343   0.218E+00    0.224E-01
RMM:   6    -0.964019670113E+01   -0.21920E-02   -0.13740E-02  4322   0.172E+00    0.202E-01
RMM:   7    -0.963971136604E+01    0.48534E-03   -0.25563E-04  4382   0.149E-01    0.204E-01
RMM:   8    -0.963934798722E+01    0.36338E-03   -0.86396E-03  4320   0.149E+00    0.284E-01
RMM:   9    -0.965058476882E+01   -0.11237E-01   -0.42704E-02  4321   0.299E+00    0.484E-01
RMM:  10    -0.963449000471E+01    0.16095E-01   -0.84984E-02  4321   0.440E+00    0.312E-01
RMM:  11    -0.963328995191E+01    0.12001E-02   -0.20619E-02  4331   0.199E+00    0.164E-01
RMM:  12    -0.963372910179E+01   -0.43915E-03   -0.31481E-03  4320   0.927E-01    0.119E-01
RMM:  13    -0.963367832697E+01    0.50775E-04   -0.68506E-03  4320   0.122E+00    0.767E-02
RMM:  14    -0.963356938326E+01    0.10894E-03   -0.66085E-04  4320   0.426E-01    0.465E-02
RMM:  15    -0.963360998320E+01   -0.40600E-04   -0.33901E-04  4320   0.278E-01    0.129E-02
RMM:  16    -0.963360967518E+01    0.30802E-06   -0.15343E-04  4320   0.175E-01    0.577E-03
RMM:  17    -0.963360862931E+01    0.10459E-05   -0.25596E-05  4247   0.795E-02    0.125E-03
RMM:  18    -0.963360870774E+01   -0.78424E-07   -0.61622E-06  3973   0.395E-02
   3 F= -.96336087E+01 E0= -.96334333E+01  d E =-.228920E+00
 curvature:  -0.26 expect dE=-0.413E-02 dE for cont linesearch -0.617E-04
 ZBRENT: interpolating
 opt :   0.4879  next Energy=    -9.633666 (dE=-0.229E+00)
 bond charge predicted
       N       E                     dE             d eps       ncg     rms          rms(c)
DAV:   1    -0.963369773771E+01   -0.89108E-04   -0.14373E-03  4714   0.377E-01    0.136E-01
RMM:   2    -0.963366779856E+01    0.29939E-04   -0.64095E-05  4318   0.628E-02    0.430E-02
RMM:   3    -0.963366881581E+01   -0.10172E-05   -0.10204E-05  4317   0.347E-02    0.296E-02
RMM:   4    -0.963367321545E+01   -0.43996E-05   -0.15103E-05  4319   0.521E-02    0.151E-02
RMM:   5    -0.963367482487E+01   -0.16094E-05   -0.10702E-05  4014   0.523E-02    0.288E-03
RMM:   6    -0.963367450324E+01    0.32163E-06   -0.27799E-06  3148   0.248E-02
   4 F= -.96336745E+01 E0= -.96334975E+01  d E =-.228986E+00
 curvature:  -0.24 expect dE=-0.368E-02 dE for cont linesearch -0.399E-06
 trial: gam= 0.01685 g(F)=  0.135E-42 g(S)=  0.151E-01 ort =-0.126E-02 (trialstep = 0.898E+00)
 search vector abs. value=  0.153E-01
 bond charge predicted
       N       E                     dE             d eps       ncg     rms          rms(c)
DAV:   1    -0.964410440530E+01   -0.10430E-01   -0.36645E-01  4384   0.526E+00    0.300E-01
RMM:   2    -0.964243409619E+01    0.16703E-02   -0.95305E-03  4324   0.982E-01    0.446E-01
RMM:   3    -0.964228231430E+01    0.15178E-03   -0.42215E-04  4424   0.185E-01    0.304E-01
RMM:   4    -0.964232737619E+01   -0.45062E-04   -0.96123E-04  4320   0.428E-01    0.653E-02
RMM:   5    -0.964229866050E+01    0.28716E-04   -0.19334E-05  4314   0.429E-02    0.673E-02
RMM:   6    -0.964244189251E+01   -0.14323E-03   -0.11660E-04  4296   0.167E-01    0.706E-02
RMM:   7    -0.964205787625E+01    0.38402E-03   -0.23871E-03  4320   0.762E-01    0.363E-02
RMM:   8    -0.964208208458E+01   -0.24208E-04   -0.72236E-05  4325   0.130E-01    0.212E-02
RMM:   9    -0.964208736862E+01   -0.52840E-05   -0.67683E-06  3896   0.396E-02    0.149E-02
RMM:  10    -0.964207359225E+01    0.13776E-04   -0.97950E-05  4320   0.131E-01    0.354E-03
RMM:  11    -0.964207311025E+01    0.48200E-06   -0.29822E-06  3129   0.163E-02
   5 F= -.96420731E+01 E0= -.96419943E+01  d E =-.839861E-02
 trial-energy change:   -0.008399  1 .order   -0.008359   -0.013513   -0.003204
 step:   1.1684(harm=  1.1766)  dis= 0.00000  next Energy=    -9.642558 (dE=-0.888E-02)
 bond charge predicted
       N       E                     dE             d eps       ncg     rms          rms(c)
DAV:   1    -0.964274496672E+01   -0.67137E-03   -0.33254E-02  4504   0.159E+00    0.918E-02
RMM:   2    -0.964259000510E+01    0.15496E-03   -0.87132E-04  4324   0.294E-01    0.133E-01
RMM:   3    -0.964258081433E+01    0.91908E-05   -0.43543E-05  4388   0.690E-02    0.906E-02
RMM:   4    -0.964261828842E+01   -0.37474E-04   -0.17407E-04  4320   0.193E-01    0.309E-02
RMM:   5    -0.964257971685E+01    0.38572E-04   -0.45111E-05  4250   0.107E-01    0.303E-02
RMM:   6    -0.964254736183E+01    0.32355E-04   -0.94120E-05  4316   0.148E-01    0.228E-02
RMM:   7    -0.964253760799E+01    0.97538E-05   -0.85811E-05  4323   0.126E-01    0.947E-03
RMM:   8    -0.964253831373E+01   -0.70575E-06   -0.25503E-06  3177   0.227E-02
   6 F= -.96425383E+01 E0= -.96424595E+01  d E =-.886381E-02
 curvature:  -0.60 expect dE=-0.422E-06 dE for cont linesearch -0.316E-06
 trial: gam= 0.00000 g(F)=  0.124E-43 g(S)=  0.706E-06 ort =-0.899E-04 (trialstep = 0.952E+00)
 search vector abs. value=  0.706E-06
 reached required accuracy - stopping structural energy minimisation
 writing wavefunctions
 augmentation electrons   1.1863250550697093     
 soft         electrons   10.834908189493747     
 augmentation electrons   1.1863250550697093     
 soft         electrons   10.834908189493747     
 augmentation electrons   1.1863250550697093     
 soft         electrons   10.834908189493747     
 total        electrons   12.021233244563456     
 augmentation electrons   1.1863250550697093     
 soft         electrons   10.834908189493747     
 total        electrons   12.021233244563456     
 total        electrons   12.021233244563456     
 total        electrons   12.021233244563456     
