    3    3   60    1
  0.8144830E+01  0.3039000E-09  0.3039000E-09  0.3055000E-09  0.5000000E-15
   1.0000000000000000E-004
  CAR 
 Name                                    
     12    216     10

  0.3742002E-15  0.3742002E-15  0.3742002E-15  0.2962963E-03
    1       -5.674107   1.000000
    2        4.220253   1.000000
    3        4.629640   1.000000
    4        4.629642   1.000000
    5        5.501902   1.000000
    6        9.331415  -0.009126
    7        9.331416  -0.009128
    8       11.556102  -0.000000
    9       11.556105  -0.000000
   10       14.084390   0.000000

  0.6666667E-01  0.3766815E-15  0.3742002E-15  0.1777778E-02
    1       -5.585138   1.000000
    2        4.291140   1.000000
    3        4.412748   1.000000
    4        4.668286   1.000000
    5        5.314651   1.000000
    6        9.289851   0.145890
    7        9.600750  -0.000003
    8       11.130711  -0.000000
    9       11.218409  -0.000000
   10       14.402010   0.000000

  0.1333333E+00  0.3754153E-15  0.3742002E-15  0.1777778E-02
    1       -5.322150   1.000000
    2        3.816792   1.000000
    3        4.489038   1.000000
    4        4.765550   1.000000
    5        4.884430   1.000000
    6        9.174766   0.952419
    7       10.246851  -0.000000
    8       10.340966  -0.000000
    9       10.666439  -0.000000
   10       14.877011   0.000000

  0.2000000E+00  0.3870416E-15  0.3742002E-15  0.1777778E-02
    1       -4.896304   1.000000
    2        3.002967   1.000000
    3        4.401144   1.000000
    4        4.685221   1.000000
    5        4.871857   1.000000
    6        9.011128   1.002536
    7        9.717802  -0.000000
    8       10.283237  -0.000000
    9       10.966577  -0.000000
   10       15.185251   0.000000

  0.2666667E+00  0.4120044E-15  0.3742002E-15  0.1777778E-02
    1       -4.324258   1.000000
    2        2.074745   1.000000
    3        3.966674   1.000000
    4        4.724562   1.000000
    5        4.933487   1.000000
    6        8.831177   1.000000
    7        9.571895  -0.000017
    8       10.169419  -0.000000
    9       11.432255  -0.000000
   10       15.349417   0.000000

  0.3333333E+00  0.4025434E-15  0.3742002E-15  0.1777778E-02
    1       -3.626824   1.000000
    2        1.095551   1.000000
    3        3.624316   1.000000
    4        4.556594   1.000000
    5        4.931627   1.000000
    6        8.666277   1.000000
    7        9.983642  -0.000000
    8       10.294079  -0.000000
    9       11.467988  -0.000000
   10       15.425418   0.000000

  0.4000000E+00  0.3732510E-15  0.3742002E-15  0.1777778E-02
    1       -2.830685   1.000000
    2        0.106373   1.000000
    3        3.391455   1.000000
    4        4.320307   1.000000
    5        4.893432   1.000000
    6        8.541900   1.000000
    7       10.528915  -0.000000
    8       10.730981  -0.000000
    9       11.283805  -0.000000
   10       15.442874   0.000000

  0.4666667E+00  0.3915456E-15  0.3742002E-15  0.1777778E-02
    1       -2.003269   1.000000
    2       -0.819323   1.000000
    3        3.274171   1.000000
    4        4.166651   1.000000
    5        4.861018   1.000000
    6        8.475375   1.000000
    7       10.706592  -0.000000
    8       11.136833  -0.000000
    9       11.377637  -0.000000
   10       15.415132   0.000000

  0.6666667E-01  0.6666667E-01  0.3742002E-15  0.1777778E-02
    1       -5.409122   1.000000
    2        4.021549   1.000000
    3        4.405798   1.000000
    4        4.740884   1.000000
    5        5.012802   1.000000
    6        9.188118   0.894169
    7       10.077735  -0.000000
    8       10.588622  -0.000000
    9       10.765575  -0.000000
   10       14.864256   0.000000

  0.1333333E+00  0.6666667E-01  0.3742002E-15  0.3555556E-02
    1       -5.064494   1.000000
    2        3.356477   1.000000
    3        4.477584   1.000000
    4        4.579163   1.000000
    5        4.931762   1.000000
    6        8.985544   1.000836
    7        9.888050  -0.000000
    8       10.386912  -0.000000
    9       10.823764  -0.000000
   10       15.289382   0.000000

  0.2000000E+00  0.6666667E-01  0.3742002E-15  0.3555556E-02
    1       -4.564895   1.000000
    2        2.523852   1.000000
    3        4.150465   1.000000
    4        4.382232   1.000000
    5        5.208208   1.000000
    6        8.723343   1.000000
    7        9.395033  -0.026596
    8       10.306155  -0.000000
    9       11.539796  -0.000000
   10       15.547815   0.000000

  0.2666667E+00  0.6666667E-01  0.3742002E-15  0.3555556E-02
    1       -3.928620   1.000000
    2        1.599930   1.000000
    3        3.792148   1.000000
    4        4.152912   1.000000
    5        5.394638   1.000000
    6        8.446362   1.000000
    7        9.342794  -0.025235
    8       10.522736  -0.000000
    9       11.908886  -0.000000
   10       15.615471   0.000000

  0.3333333E+00  0.6666667E-01  0.3742002E-15  0.3555556E-02
    1       -3.178149   1.000000
    2        0.631543   1.000000
    3        3.530219   1.000000
    4        3.884265   1.000000
    5        5.424797   1.000000
    6        8.201672   1.000000
    7        9.724193  -0.000000
    8       10.907977  -0.000000
    9       11.893783  -0.000000
   10       15.638698   0.000000

  0.4000000E+00  0.6666667E-01  0.3742002E-15  0.3555556E-02
    1       -2.347616   1.000000
    2       -0.335349   1.000000
    3        3.372654   1.000000
    4        3.678996   1.000000
    5        5.382593   1.000000
    6        8.033200   1.000000
    7       10.256965  -0.000000
    8       11.256480  -0.000000
    9       11.767034  -0.000000
   10       15.683073   0.000000

  0.4666667E+00  0.6666667E-01  0.3742002E-15  0.1777778E-02
    1       -1.687698   1.000000
    2       -1.041794   1.000000
    3        3.320261   1.000000
    4        3.603467   1.000000
    5        5.358376   1.000000
    6        7.973067   1.000000
    7       10.519100  -0.000000
    8       11.389097  -0.000000
    9       11.709143  -0.000000
   10       15.725761   0.000000

  0.1333333E+00  0.1333333E+00  0.3742002E-15  0.1777778E-02
    1       -4.645613   1.000000
    2        2.744473   1.000000
    3        4.180453   1.000000
    4        4.232100   1.000000
    5        5.312072   1.000000
    6        8.603227   1.000000
    7        9.319514   0.018531
    8       10.383095  -0.000000
    9       11.673958  -0.000000
   10       15.510659   0.000000

  0.2000000E+00  0.1333333E+00  0.3742002E-15  0.3555556E-02
    1       -4.080091   1.000000
    2        2.011492   1.000000
    3        3.731408   1.000000
    4        3.929694   1.000000
    5        5.751593   1.000000
    6        8.130935   1.000000
    7        8.889950   1.000004
    8       10.696133  -0.000000
    9       12.499665   0.000000
   10       15.252775   0.000000

  0.2666667E+00  0.1333333E+00  0.3742002E-15  0.3555556E-02
    1       -3.386758   1.000000
    2        1.170082   1.000000
    3        3.285236   1.000000
    4        3.707854   1.000000
    5        6.060114   1.000000
    6        7.666270   1.000000
    7        8.869053   1.000001
    8       11.102932  -0.000000
    9       12.926078   0.000000
   10       15.582999   0.000000

  0.3333333E+00  0.1333333E+00  0.3742002E-15  0.3555556E-02
    1       -2.589797   1.000000
    2        0.251795   1.000000
    3        2.951367   1.000000
    4        3.571396   1.000000
    5        6.139322   1.000000
    6        7.296404   1.000000
    7        9.315999   0.029104
    8       11.308470  -0.000000
    9       12.959178   0.000000
   10       16.245792   0.000000

  0.4000000E+00  0.1333333E+00  0.3742002E-15  0.3555556E-02
    1       -1.740911   1.000000
    2       -0.667265   1.000000
    3        2.777414   1.000000
    4        3.509132   1.000000
    5        6.118645   1.000000
    6        7.091213   1.000000
    7        9.901142  -0.000000
    8       11.175627  -0.000000
    9       12.909203   0.000000
   10       16.483779   0.000000

  0.2000000E+00  0.2000000E+00  0.3742002E-15  0.1777778E-02
    1       -3.456235   1.000000
    2        1.463482   1.000000
    3        2.969364   1.000000
    4        3.793830   1.000000
    5        6.376314   1.000000
    6        7.438235   1.000000
    7        8.465711   1.000000
    8       11.171811  -0.000000
    9       13.569127   0.000000
   10       15.099868   0.000000

  0.2666667E+00  0.2000000E+00  0.3742002E-15  0.3555556E-02
    1       -2.712314   1.000000
    2        0.800051   1.000000
    3        2.324868   1.000000
    4        3.753883   1.000000
    5        6.798863   1.000000
    6        6.856907   1.000000
    7        8.433937   1.000000
    8       11.354797  -0.000000
    9       14.184590   0.000000
   10       15.516174   0.000000

  0.3333333E+00  0.2000000E+00  0.3742002E-15  0.3555556E-02
    1       -1.875006   1.000000
    2       -0.026645   1.000000
    3        1.950065   1.000000
    4        3.778561   1.000000
    5        6.335631   1.000000
    6        6.961897   1.000000
    7        8.977479   1.000571
    8       11.053269  -0.000000
    9       14.232150   0.000000
   10       16.395287   0.000000

  0.4000000E+00  0.2000000E+00  0.3742002E-15  0.1777778E-02
    1       -1.105256   1.000000
    2       -0.805894   1.000000
    3        1.834224   1.000000
    4        3.800961   1.000000
    5        6.162259   1.000000
    6        6.947802   1.000000
    7        9.454420  -0.005374
    8       10.682386  -0.000000
    9       14.215654   0.000000
   10       16.821933   0.000000

  0.2666667E+00  0.2666667E+00  0.3742002E-15  0.1777778E-02
    1       -1.925473   1.000000
    2        0.427056   1.000000
    3        1.437388   1.000000
    4        3.932201   1.000000
    5        6.012375   1.000000
    6        7.694956   1.000000
    7        8.188837   1.000000
    8       11.018331  -0.000000
    9       15.448853   0.000000
   10       15.453928   0.000000

  0.3333333E+00  0.2666667E+00  0.3742002E-15  0.3555556E-02
    1       -1.060144   1.000000
    2       -0.197443   1.000000
    3        0.950008   1.000000
    4        4.164214   1.000000
    5        5.461116   1.000000
    6        7.850989   1.000000
    7        8.749593   1.000000
    8       10.335428  -0.000000
    9       15.414815   0.000000
   10       16.363534   0.000000

  0.3333333E+00  0.3333333E+00  0.3742002E-15  0.5925926E-03
    1       -0.323369   1.000000
    2       -0.323366   1.000000
    3        0.217833   1.000000
    4        4.728672   1.000000
    5        4.728674   1.000000
    6        8.542716   1.000000
    7        8.542717   1.000000
    8        9.796950  -0.000000
    9       16.144788   0.000000
   10       16.144788   0.000000

  0.3742002E-15  0.3742002E-15  0.6666667E-01  0.5925926E-03
    1       -5.612158   1.000000
    2        3.911243   1.000000
    3        4.679447   1.000000
    4        4.679450   1.000000
    5        5.756922   1.000000
    6        9.154534   1.008073
    7        9.154535   1.008071
    8       11.422790  -0.000000
    9       11.422793  -0.000000
   10       14.365535   0.000000

  0.6666667E-01  0.3766815E-15  0.6666667E-01  0.3555556E-02
    1       -5.524187   1.000000
    2        3.964507   1.000000
    3        4.453268   1.000000
    4        4.713046   1.000000
    5        5.582578   1.000000
    6        9.089330   1.026131
    7        9.392289  -0.027830
    8       11.121792  -0.000000
    9       11.204530  -0.000000
   10       14.582059   0.000000

  0.1333333E+00  0.3754153E-15  0.6666667E-01  0.3555556E-02
    1       -5.264270   1.000000
    2        3.841917   1.000000
    3        4.074416   1.000000
    4        4.792607   1.000000
    5        5.235238   1.000000
    6        8.934750   1.000060
    7        9.733882  -0.000000
    8       10.753555  -0.000000
    9       10.817978  -0.000000
   10       14.899989   0.000000

  0.2000000E+00  0.3870416E-15  0.6666667E-01  0.3555556E-02
    1       -4.843628   1.000000
    2        2.999623   1.000000
    3        4.079090   1.000000
    4        4.864104   1.000000
    5        4.963818   1.000000
    6        8.791045   1.000000
    7        9.529813  -0.000188
    8       10.515668  -0.000000
    9       11.117156  -0.000000
   10       15.041188   0.000000

  0.2666667E+00  0.4120044E-15  0.6666667E-01  0.3555556E-02
    1       -4.278926   1.000000
    2        2.049278   1.000000
    3        3.891821   1.000000
    4        4.793213   1.000000
    5        4.875428   1.000000
    6        8.731237   1.000000
    7        9.466545  -0.003435
    8       10.370865  -0.000000
    9       11.505274  -0.000000
   10       15.187587   0.000000

  0.3333333E+00  0.4025434E-15  0.6666667E-01  0.3555556E-02
    1       -3.590343   1.000000
    2        1.058402   1.000000
    3        3.655869   1.000000
    4        4.569110   1.000000
    5        4.821855   1.000000
    6        8.728978   1.000000
    7        9.840826  -0.000000
    8       10.407641  -0.000000
    9       11.554965  -0.000000
   10       15.633405   0.000000

  0.4000000E+00  0.3732510E-15  0.6666667E-01  0.3555556E-02
    1       -2.801964   1.000000
    2        0.065190   1.000000
    3        3.475233   1.000000
    4        4.324399   1.000000
    5        4.745387   1.000000
    6        8.725488   1.000000
    7       10.368249  -0.000000
    8       10.573040  -0.000000
    9       11.586119  -0.000000
   10       15.475350   0.000000

  0.4666667E+00  0.3915456E-15  0.6666667E-01  0.3555556E-02
    1       -1.965133   1.000000
    2       -0.874927   1.000000
    3        3.381361   1.000000
    4        4.170995   1.000000
    5        4.693725   1.000000
    6        8.715187   1.000000
    7       10.574608  -0.000000
    8       10.719844  -0.000000
    9       11.904523  -0.000000
   10       15.227057   0.000000

  0.6666667E-01  0.6666667E-01  0.6666667E-01  0.3555556E-02
    1       -5.350212   1.000000
    2        4.046067   1.000000
    3        4.059519   1.000000
    4        4.715195   1.000000
    5        5.364125   1.000000
    6        8.917927   1.000022
    7        9.777182  -0.000000
    8       10.710623  -0.000000
    9       10.963086  -0.000000
   10       14.958912   0.000000

  0.1333333E+00  0.6666667E-01  0.6666667E-01  0.7111111E-02
    1       -5.009742   1.000000
    2        3.377247   1.000000
    3        4.099694   1.000000
    4        4.577942   1.000000
    5        5.272041   1.000000
    6        8.622167   1.000000
    7        9.922357  -0.000000
    8       10.385569  -0.000000
    9       11.053818  -0.000000
   10       15.259398   0.000000

  0.2000000E+00  0.6666667E-01  0.6666667E-01  0.7111111E-02
    1       -4.516502   1.000000
    2        2.518129   1.000000
    3        3.971339   1.000000
    4        4.380204   1.000000
    5        5.350497   1.000000
    6        8.364370   1.000000
    7        9.655052  -0.000000
    8       10.350218  -0.000000
    9       11.592741  -0.000000
   10       15.218415   0.000000

  0.2666667E+00  0.6666667E-01  0.6666667E-01  0.7111111E-02
    1       -3.888577   1.000000
    2        1.573531   1.000000
    3        3.744802   1.000000
    4        4.148956   1.000000
    5        5.386710   1.000000
    6        8.280761   1.000000
    7        9.597063  -0.000003
    8       10.500212  -0.000000
    9       11.918934  -0.000000
   10       15.409154   0.000000

  0.3333333E+00  0.6666667E-01  0.6666667E-01  0.7111111E-02
    1       -3.147265   1.000000
    2        0.595287   1.000000
    3        3.558212   1.000000
    4        3.887494   1.000000
    5        5.305721   1.000000
    6        8.294738   1.000000
    7        9.842835  -0.000000
    8       10.780946  -0.000000
    9       11.969085  -0.000000
   10       15.673866   0.000000

  0.4000000E+00  0.6666667E-01  0.6666667E-01  0.7111111E-02
    1       -2.321236   1.000000
    2       -0.376696   1.000000
    3        3.453075   1.000000
    4        3.676665   1.000000
    5        5.199427   1.000000
    6        8.273571   1.000000
    7       10.284175  -0.000000
    8       10.943809  -0.000000
    9       12.052753   0.000000
   10       15.538956   0.000000

  0.4666667E+00  0.6666667E-01  0.6666667E-01  0.3555556E-02
    1       -1.622876   1.000000
    2       -1.124362   1.000000
    3        3.424812   1.000000
    4        3.592327   1.000000
    5        5.154910   1.000000
    6        8.254948   1.000000
    7       10.537681  -0.000000
    8       10.934422  -0.000000
    9       12.145125   0.000000
   10       15.443673   0.000000

  0.1333333E+00  0.1333333E+00  0.6666667E-01  0.3555556E-02
    1       -4.596226   1.000000
    2        2.764252   1.000000
    3        3.942953   1.000000
    4        4.202629   1.000000
    5        5.566034   1.000000
    6        8.099659   1.000000
    7        9.805413  -0.000000
    8       10.305426  -0.000000
    9       11.699199  -0.000000
   10       15.385493   0.000000

  0.2000000E+00  0.1333333E+00  0.6666667E-01  0.7111111E-02
    1       -4.038321   1.000000
    2        2.013737   1.000000
    3        3.550533   1.000000
    4        3.975601   1.000000
    5        5.894662   1.000000
    6        7.664602   1.000000
    7        9.410836  -0.019363
    8       10.658855  -0.000000
    9       12.428741   0.000000
   10       15.139568   0.000000

  0.2666667E+00  0.1333333E+00  0.6666667E-01  0.7111111E-02
    1       -3.354469   1.000000
    2        1.150455   1.000000
    3        3.183262   1.000000
    4        3.783758   1.000000
    5        5.992687   1.000000
    6        7.548819   1.000000
    7        9.230027   0.606217
    8       11.046068  -0.000000
    9       12.840189   0.000000
   10       15.394688   0.000000

  0.3333333E+00  0.1333333E+00  0.6666667E-01  0.7111111E-02
    1       -2.566956   1.000000
    2        0.220902   1.000000
    3        2.912759   1.000000
    4        3.654857   1.000000
    5        5.837993   1.000000
    6        7.599053   1.000000
    7        9.467013  -0.003373
    8       11.218840  -0.000000
    9       12.945368   0.000000
   10       15.817437   0.000000

  0.4000000E+00  0.1333333E+00  0.6666667E-01  0.7111111E-02
    1       -1.714602   1.000000
    2       -0.710174   1.000000
    3        2.769495   1.000000
    4        3.596312   1.000000
    5        5.697736   1.000000
    6        7.586698   1.000000
    7        9.953583  -0.000000
    8       11.078570  -0.000000
    9       12.958816   0.000000
   10       16.009291   0.000000

  0.2000000E+00  0.2000000E+00  0.6666667E-01  0.3555556E-02
    1       -3.423462   1.000000
    2        1.465494   1.000000
    3        2.851533   1.000000
    4        3.841073   1.000000
    5        6.523728   1.000000
    6        6.979369   1.000000
    7        8.985533   1.000836
    8       11.134130  -0.000000
    9       13.396437   0.000000
   10       15.013575   0.000000

  0.2666667E+00  0.2000000E+00  0.6666667E-01  0.7111111E-02
    1       -2.690510   1.000000
    2        0.785890   1.000000
    3        2.270544   1.000000
    4        3.805133   1.000000
    5        6.315675   1.000000
    6        7.191712   1.000000
    7        8.785517   1.000000
    8       11.314599  -0.000000
    9       14.026541   0.000000
   10       15.346105   0.000000

  0.3333333E+00  0.2000000E+00  0.6666667E-01  0.7111111E-02
    1       -1.863615   1.000000
    2       -0.051936   1.000000
    3        1.939875   1.000000
    4        3.834216   1.000000
    5        5.881953   1.000000
    6        7.462414   1.000000
    7        9.115164   1.035091
    8       11.029626  -0.000000
    9       14.155529   0.000000
   10       16.055569   0.000000

  0.4000000E+00  0.2000000E+00  0.6666667E-01  0.3555556E-02
    1       -1.057277   1.000000
    2       -0.873656   1.000000
    3        1.837476   1.000000
    4        3.860091   1.000000
    5        5.716733   1.000000
    6        7.487050   1.000000
    7        9.526333  -0.000226
    8       10.678546  -0.000000
    9       14.160766   0.000000
   10       16.404949   0.000000

  0.2666667E+00  0.2666667E+00  0.6666667E-01  0.3555556E-02
    1       -1.917032   1.000000
    2        0.407894   1.000000
    3        1.423398   1.000000
    4        3.965014   1.000000
    5        5.793710   1.000000
    6        7.811853   1.000000
    7        8.508536   1.000000
    8       11.007217  -0.000000
    9       15.218534   0.000000
   10       15.371903   0.000000

  0.3333333E+00  0.2666667E+00  0.6666667E-01  0.7111111E-02
    1       -1.067692   1.000000
    2       -0.220417   1.000000
    3        0.966245   1.000000
    4        4.183077   1.000000
    5        5.309303   1.000000
    6        8.092694   1.000000
    7        8.879435   1.000002
    8       10.353122  -0.000000
    9       15.319010   0.000000
   10       16.172287   0.000000

  0.3333333E+00  0.3333333E+00  0.6666667E-01  0.1185185E-02
    1       -0.367397   1.000000
    2       -0.367395   1.000000
    3        0.294527   1.000000
    4        4.688105   1.000000
    5        4.688107   1.000000
    6        8.706337   1.000000
    7        8.706338   1.000000
    8        9.819277  -0.000000
    9       16.027769   0.000000
   10       16.027769   0.000000

  0.3742002E-15  0.3742002E-15  0.1333333E+00  0.5925926E-03
    1       -5.430151   1.000000
    2        3.278005   1.000000
    3        4.828425   1.000000
    4        4.828428   1.000000
    5        6.242976   1.000000
    6        8.730199   1.000000
    7        8.730200   1.000000
    8       11.047069  -0.000000
    9       11.047072  -0.000000
   10       14.933972   0.000000

  0.6666667E-01  0.3766815E-15  0.1333333E+00  0.3555556E-02
    1       -5.345307   1.000000
    2        3.326027   1.000000
    3        4.586017   1.000000
    4        4.845534   1.000000
    5        6.045491   1.000000
    6        8.633847   1.000000
    7        8.939466   1.000078
    8       10.948974  -0.000000
    9       11.042160  -0.000000
   10       15.211156   0.000000

  0.1333333E+00  0.3754153E-15  0.1333333E+00  0.3555556E-02
    1       -5.094896   1.000000
    2        3.416531   1.000000
    3        3.961884   1.000000
    4        4.868606   1.000000
    5        5.671286   1.000000
    6        8.462582   1.000000
    7        9.171319   0.964568
    8       10.969288  -0.000000
    9       10.999266  -0.000000
   10       15.068380   0.000000

  0.2000000E+00  0.3870416E-15  0.1333333E+00  0.3555556E-02
    1       -4.690547   1.000000
    2        2.940889   1.000000
    3        3.676310   1.000000
    4        4.834814   1.000000
    5        5.299705   1.000000
    6        8.415839   1.000000
    7        9.129358   1.034004
    8       10.905593  -0.000000
    9       11.375981  -0.000000
   10       14.833527   0.000000

  0.2666667E+00  0.4120044E-15  0.1333333E+00  0.3555556E-02
    1       -4.148907   1.000000
    2        1.977384   1.000000
    3        3.724495   1.000000
    4        4.712763   1.000000
    5        4.944024   1.000000
    6        8.579599   1.000000
    7        9.185374   0.907608
    8       10.796653  -0.000000
    9       11.731082  -0.000000
   10       14.791668   0.000000

  0.3333333E+00  0.4025434E-15  0.1333333E+00  0.3555556E-02
    1       -3.488902   1.000000
    2        0.974045   1.000000
    3        3.720291   1.000000
    4        4.541816   1.000000
    5        4.603507   1.000000
    6        8.881004   1.000002
    7        9.500113  -0.000826
    8       10.723418  -0.000000
    9       11.815408  -0.000000
   10       15.140330   0.000000

  0.4000000E+00  0.3732510E-15  0.1333333E+00  0.3555556E-02
    1       -2.729459   1.000000
    2       -0.017504   1.000000
    3        3.688824   1.000000
    4        4.323962   1.000000
    5        4.388181   1.000000
    6        9.165891   0.981401
    7        9.838007  -0.000000
    8       10.721415  -0.000000
    9       12.004649   0.000000
   10       15.199545   0.000000

  0.4666667E+00  0.3915456E-15  0.1333333E+00  0.3555556E-02
    1       -1.890104   1.000000
    2       -0.973109   1.000000
    3        3.665680   1.000000
    4        4.166228   1.000000
    5        4.300146   1.000000
    6        9.319189   0.019459
    7        9.963741  -0.000000
    8       10.761265  -0.000000
    9       12.439742   0.000000
   10       14.804496   0.000000

  0.6666667E-01  0.6666667E-01  0.1333333E+00  0.3555556E-02
    1       -5.177662   1.000000
    2        3.404470   1.000000
    3        4.171137   1.000000
    4        4.795744   1.000000
    5        5.836945   1.000000
    6        8.376808   1.000000
    7        9.284441   0.178511
    8       10.780450  -0.000000
    9       11.115070  -0.000000
   10       15.302426   0.000000

  0.1333333E+00  0.6666667E-01  0.1333333E+00  0.7111111E-02
    1       -4.850163   1.000000
    2        3.352239   1.000000
    3        3.602519   1.000000
    4        4.604724   1.000000
    5        5.722643   1.000000
    6        8.032005   1.000000
    7        9.553474  -0.000050
    8       10.693005  -0.000000
    9       11.338222  -0.000000
   10       15.227058   0.000000

  0.2000000E+00  0.6666667E-01  0.1333333E+00  0.7111111E-02
    1       -4.376791   1.000000
    2        2.485782   1.000000
    3        3.627343   1.000000
    4        4.360978   1.000000
    5        5.598515   1.000000
    6        7.902133   1.000000
    7        9.637865  -0.000000
    8       10.676137  -0.000000
    9       11.752067  -0.000000
   10       14.908769   0.000000

  0.2666667E+00  0.6666667E-01  0.1333333E+00  0.7111111E-02
    1       -3.775277   1.000000
    2        1.507340   1.000000
    3        3.626864   1.000000
    4        4.118240   1.000000
    5        5.343003   1.000000
    6        8.109071   1.000000
    7        9.819110  -0.000000
    8       10.635549  -0.000000
    9       12.029226   0.000000
   10       14.970854   0.000000

  0.3333333E+00  0.6666667E-01  0.1333333E+00  0.7111111E-02
    1       -3.064520   1.000000
    2        0.517348   1.000000
    3        3.591435   1.000000
    4        3.900237   1.000000
    5        5.042993   1.000000
    6        8.496504   1.000000
    7       10.068488  -0.000000
    8       10.632646  -0.000000
    9       12.164578   0.000000
   10       15.245689   0.000000

  0.4000000E+00  0.6666667E-01  0.1333333E+00  0.7111111E-02
    1       -2.263204   1.000000
    2       -0.453284   1.000000
    3        3.555697   1.000000
    4        3.751144   1.000000
    5        4.818218   1.000000
    6        8.791048   1.000000
    7       10.309187  -0.000000
    8       10.627857  -0.000000
    9       12.430672   0.000000
   10       15.117791   0.000000

  0.4666667E+00  0.6666667E-01  0.1333333E+00  0.3555556E-02
    1       -1.433246   1.000000
    2       -1.339857   1.000000
    3        3.538089   1.000000
    4        3.702708   1.000000
    5        4.735969   1.000000
    6        8.881435   1.000002
    7       10.450338  -0.000000
    8       10.591894  -0.000000
    9       12.629879   0.000000
   10       14.925251   0.000000

  0.1333333E+00  0.1333333E+00  0.1333333E+00  0.3555556E-02
    1       -4.453352   1.000000
    2        2.821005   1.000000
    3        3.436430   1.000000
    4        4.200564   1.000000
    5        6.044131   1.000000
    6        7.402266   1.000000
    7       10.073068  -0.000000
    8       10.404293  -0.000000
    9       11.799936  -0.000000
   10       15.204282   0.000000

  0.2000000E+00  0.1333333E+00  0.1333333E+00  0.7111111E-02
    1       -3.919290   1.000000
    2        2.016684   1.000000
    3        3.226914   1.000000
    4        3.992233   1.000000
    5        6.141625   1.000000
    6        7.151058   1.000000
    7       10.107243  -0.000000
    8       10.550293  -0.000000
    9       12.344134   0.000000
   10       14.913046   0.000000

  0.2666667E+00  0.1333333E+00  0.1333333E+00  0.7111111E-02
    1       -3.265640   1.000000
    2        1.103390   1.000000
    3        3.005908   1.000000
    4        3.885687   1.000000
    5        5.744038   1.000000
    6        7.579193   1.000000
    7        9.924227  -0.000000
    8       10.878057  -0.000000
    9       12.725507   0.000000
   10       15.028389   0.000000

  0.3333333E+00  0.1333333E+00  0.1333333E+00  0.7111111E-02
    1       -2.511243   1.000000
    2        0.157792   1.000000
    3        2.835785   1.000000
    4        3.832842   1.000000
    5        5.335814   1.000000
    6        8.107337   1.000000
    7        9.901713  -0.000000
    8       10.991792  -0.000000
    9       12.949794   0.000000
   10       15.296009   0.000000

  0.4000000E+00  0.1333333E+00  0.1333333E+00  0.7111111E-02
    1       -1.675302   1.000000
    2       -0.777993   1.000000
    3        2.743089   1.000000
    4        3.821825   1.000000
    5        5.097225   1.000000
    6        8.388008   1.000000
    7       10.116343  -0.000000
    8       10.864085  -0.000000
    9       13.081024   0.000000
   10       15.384425   0.000000

  0.2000000E+00  0.2000000E+00  0.1333333E+00  0.3555556E-02
    1       -3.332613   1.000000
    2        1.469877   1.000000
    3        2.611545   1.000000
    4        3.907956   1.000000
    5        6.309722   1.000000
    6        6.918322   1.000000
    7        9.815725  -0.000000
    8       11.005355  -0.000000
    9       13.095010   0.000000
   10       14.822459   0.000000

  0.2666667E+00  0.2000000E+00  0.1333333E+00  0.7111111E-02
    1       -2.634662   1.000000
    2        0.749848   1.000000
    3        2.161077   1.000000
    4        3.911252   1.000000
    5        5.744940   1.000000
    6        7.587747   1.000000
    7        9.535287  -0.000140
    8       11.193843  -0.000000
    9       13.715835   0.000000
   10       15.036254   0.000000
