 running on    4 total cores
 distrk:  each k-point on    4 cores,    1 groups
 distr:  one band on    2 cores,    2 groups
 using from now: INCAR     
 vasp.5.4.4.18Apr17-6-g9f103f2a35 (build Dec  7 2020 12:43:57) complex           
 POSCAR found type information on POSCAR  Mo B 
 POSCAR found :  2 types and       3 ions
 scaLAPACK will be used
 LDA part: xc-table for Pade appr. of Perdew
 POSCAR, INCAR and KPOINTS ok, starting setup
 FFT: planning ...
 WAVECAR not read
 augmentation electrons   12.018373587906812     
 soft         electrons   0.0000000000000000     
 augmentation electrons   12.018373587906812     
 soft         electrons   0.0000000000000000     
 augmentation electrons   12.018373587906812     
 soft         electrons   0.0000000000000000     
 augmentation electrons   12.018373587906812     
 soft         electrons   0.0000000000000000     
 total        electrons   12.018373587906812     
 total        electrons   12.018373587906812     
 total        electrons   12.018373587906812     
 total        electrons   12.018373587906812     
 augmentation electrons   169.75791458332097     
 soft         electrons   0.0000000000000000     
 total        electrons   169.75791458332097     
 augmentation electrons   169.75791458332097     
 soft         electrons   0.0000000000000000     
 total        electrons   169.75791458332097     
 augmentation electrons   169.75791458332097     
 soft         electrons   0.0000000000000000     
 total        electrons   169.75791458332097     
 augmentation electrons   169.75791458332097     
 soft         electrons   0.0000000000000000     
 total        electrons   169.75791458332097     
 entering main loop
       N       E                     dE             d eps       ncg     rms          rms(c)
DAV:   1     0.302660784157E+02    0.30266E+02   -0.57199E+03  4320   0.105E+03
DAV:   2    -0.265090878751E+02   -0.56775E+02   -0.53862E+02  5152   0.219E+02
DAV:   3    -0.286697438624E+02   -0.21607E+01   -0.20729E+01  6006   0.381E+01
DAV:   4    -0.286955449558E+02   -0.25801E-01   -0.25596E-01  5402   0.317E+00
DAV:   5    -0.286958975829E+02   -0.35263E-03   -0.35235E-03  5592   0.283E-01    0.372E+01
RMM:   6    -0.251014287521E+02    0.35945E+01   -0.12712E+01  4333   0.220E+01    0.983E+00
RMM:   7    -0.250239575587E+02    0.77471E-01   -0.25893E-01  4327   0.297E+00    0.564E+00
RMM:   8    -0.250010320485E+02    0.22926E-01   -0.10714E-01  4320   0.250E+00    0.127E+00
RMM:   9    -0.249849070557E+02    0.16125E-01   -0.28040E-02  4321   0.113E+00    0.775E-02
RMM:  10    -0.249850829747E+02   -0.17592E-03   -0.18463E-03  4371   0.237E-01    0.858E-02
RMM:  11    -0.249849974192E+02    0.85555E-04   -0.98241E-05  4320   0.671E-02    0.207E-02
RMM:  12    -0.249849959067E+02    0.15125E-05   -0.25834E-06  3154   0.881E-03    0.675E-03
RMM:  13    -0.249849948921E+02    0.10146E-05   -0.40559E-06  3565   0.121E-02    0.125E-03
RMM:  14    -0.249849948723E+02    0.19886E-07   -0.11727E-07  2308   0.290E-03
   1 F= -.26367407E+02 E0= -.26367543E+02  d E =-.263674E+02
 curvature:   0.00 expect dE= 0.000E+00 dE for cont linesearch  0.000E+00
 trial: gam= 0.00000 g(F)=  0.428E-43 g(S)=  0.475E+00 ort = 0.000E+00 (trialstep = 0.100E+01)
 search vector abs. value=  0.475E+00
 bond charge predicted
       N       E                     dE             d eps       ncg     rms          rms(c)
DAV:   1    -0.253380100420E+02   -0.35302E+00   -0.11923E+01  4354   0.332E+01    0.109E+01
RMM:   2    -0.251459646407E+02    0.19205E+00   -0.39894E-01  4320   0.467E+00    0.441E+00
RMM:   3    -0.251059528857E+02    0.40012E-01   -0.44035E-02  4324   0.140E+00    0.227E+00
RMM:   4    -0.250976484065E+02    0.83045E-02   -0.16487E-02  4320   0.939E-01    0.132E-01
RMM:   5    -0.250976752275E+02   -0.26821E-04   -0.99324E-04  4360   0.188E-01    0.608E-02
RMM:   6    -0.250976158342E+02    0.59393E-04   -0.11908E-04  4321   0.721E-02    0.735E-03
RMM:   7    -0.250976161918E+02   -0.35758E-06   -0.42759E-06  3454   0.126E-02
   2 F= -.26298367E+02 E0= -.26298177E+02  d E =0.690402E-01
 trial-energy change:    0.069040  1 .order    0.037868   -0.475318    0.551053
 step:   0.4188(harm=  0.4631)  dis= 0.00000  next Energy=   -26.464638 (dE=-0.972E-01)
 bond charge predicted
       N       E                     dE             d eps       ncg     rms          rms(c)
DAV:   1    -0.252388048506E+02   -0.14119E+00   -0.41785E+00  4340   0.202E+01    0.629E+00
RMM:   2    -0.251744196670E+02    0.64385E-01   -0.10002E-01  4320   0.249E+00    0.238E+00
RMM:   3    -0.251615652853E+02    0.12854E-01   -0.13063E-02  4323   0.859E-01    0.917E-01
RMM:   4    -0.251595991042E+02    0.19662E-02   -0.42400E-03  4321   0.483E-01    0.504E-02
RMM:   5    -0.251596223308E+02   -0.23227E-04   -0.17740E-04  4353   0.846E-02    0.205E-02
RMM:   6    -0.251596250805E+02   -0.27497E-05   -0.20835E-05  4307   0.300E-02    0.119E-02
RMM:   7    -0.251596240415E+02    0.10390E-05   -0.19812E-06  3109   0.107E-02    0.192E-03
RMM:   8    -0.251596240095E+02    0.32008E-07   -0.19036E-07  2579   0.394E-03
   3 F= -.26461596E+02 E0= -.26461653E+02  d E =-.941886E-01
 curvature:  -0.23 expect dE=-0.101E-01 dE for cont linesearch -0.214E-04
 trial: gam= 0.10679 g(F)=  0.623E-43 g(S)=  0.441E-01 ort =-0.666E-02 (trialstep = 0.884E+00)
 search vector abs. value=  0.481E-01
 bond charge predicted
       N       E                     dE             d eps       ncg     rms          rms(c)
DAV:   1    -0.251903370432E+02   -0.30713E-01   -0.12373E+00  4368   0.931E+00    0.542E-01
RMM:   2    -0.251856568518E+02    0.46802E-02   -0.26762E-02  4330   0.138E+00    0.451E-01
RMM:   3    -0.251851570502E+02    0.49980E-03   -0.74887E-04  4341   0.174E-01    0.250E-01
RMM:   4    -0.251849841387E+02    0.17291E-03   -0.40955E-04  4320   0.157E-01    0.321E-02
RMM:   5    -0.251849730574E+02    0.11081E-04   -0.52456E-05  4330   0.456E-02    0.188E-02
RMM:   6    -0.251849705406E+02    0.25168E-05   -0.12216E-05  4265   0.233E-02    0.844E-03
RMM:   7    -0.251849700611E+02    0.47954E-06   -0.29881E-07  2801   0.422E-03
   4 F= -.26491525E+02 E0= -.26491389E+02  d E =-.299290E-01
 trial-energy change:   -0.029929  1 .order   -0.031943   -0.038347   -0.025540
 step:   2.6461(harm=  2.6461)  dis= 0.00000  next Energy=   -26.519004 (dE=-0.574E-01)
 bond charge predicted
       N       E                     dE             d eps       ncg     rms          rms(c)
DAV:   1    -0.252084796297E+02   -0.23509E-01   -0.49228E+00  4352   0.184E+01    0.106E+00
RMM:   2    -0.251909222001E+02    0.17557E-01   -0.96255E-02  4329   0.266E+00    0.892E-01
RMM:   3    -0.251885110783E+02    0.24111E-02   -0.27989E-03  4339   0.348E-01    0.498E-01
RMM:   4    -0.251876227732E+02    0.88831E-03   -0.17144E-03  4320   0.308E-01    0.529E-02
RMM:   5    -0.251875805573E+02    0.42216E-04   -0.16377E-04  4328   0.809E-02    0.341E-02
RMM:   6    -0.251875725471E+02    0.80101E-05   -0.37506E-05  4314   0.408E-02    0.147E-02
RMM:   7    -0.251875710192E+02    0.15279E-05   -0.10779E-06  2921   0.761E-03    0.537E-03
RMM:   8    -0.251875708365E+02    0.18277E-06   -0.66789E-07  2699   0.527E-03
   5 F= -.26506025E+02 E0= -.26506253E+02  d E =-.444297E-01
 curvature:  -1.47 expect dE=-0.224E-01 dE for cont linesearch -0.831E-02
 ZBRENT: interpolating
 opt :   2.0054  next Energy=   -26.511314 (dE=-0.497E-01)
 bond charge predicted
       N       E                     dE             d eps       ncg     rms          rms(c)
DAV:   1    -0.251990826036E+02   -0.11512E-01   -0.65299E-01  4336   0.679E+00    0.392E-01
RMM:   2    -0.251965502957E+02    0.25323E-02   -0.12445E-02  4329   0.970E-01    0.330E-01
RMM:   3    -0.251961997258E+02    0.35057E-03   -0.39355E-04  4337   0.129E-01    0.181E-01
RMM:   4    -0.251960781990E+02    0.12153E-03   -0.19514E-04  4320   0.102E-01    0.214E-02
RMM:   5    -0.251960726051E+02    0.55939E-05   -0.20039E-05  4323   0.287E-02    0.128E-02
RMM:   6    -0.251960709457E+02    0.16593E-05   -0.51456E-06  3930   0.150E-02    0.551E-03
RMM:   7    -0.251960708074E+02    0.13839E-06   -0.17726E-07  2679   0.347E-03
   6 F= -.26509778E+02 E0= -.26509567E+02  d E =-.481825E-01
 curvature:  -0.93 expect dE=-0.265E-02 dE for cont linesearch -0.214E-03
 ZBRENT: interpolating
 opt :   2.1127  next Energy=   -26.509956 (dE=-0.484E-01)
 bond charge predicted
       N       E                     dE             d eps       ncg     rms          rms(c)
DAV:   1    -0.251955660425E+02    0.50490E-03   -0.18336E-02  4382   0.113E+00    0.629E-02
RMM:   2    -0.251955100553E+02    0.55987E-04   -0.32591E-04  4328   0.159E-01    0.520E-02
RMM:   3    -0.251955024431E+02    0.76122E-05   -0.98862E-06  3992   0.205E-02    0.288E-02
RMM:   4    -0.251955003569E+02    0.20862E-05   -0.50477E-06  3871   0.170E-02    0.321E-03
RMM:   5    -0.251955002245E+02    0.13239E-06   -0.47760E-07  2629   0.501E-03
   7 F= -.26509970E+02 E0= -.26509791E+02  d E =-.483739E-01
 curvature:  -0.78 expect dE=-0.273E-02 dE for cont linesearch -0.167E-04
 ZBRENT: interpolating
 opt :   2.1573  next Energy=   -26.509994 (dE=-0.484E-01)
 bond charge predicted
       N       E                     dE             d eps       ncg     rms          rms(c)
DAV:   1    -0.251951940994E+02    0.30626E-03   -0.31710E-03  4412   0.471E-01    0.267E-02
RMM:   2    -0.251951838050E+02    0.10294E-04   -0.57520E-05  4328   0.668E-02    0.217E-02
RMM:   3    -0.251951825605E+02    0.12445E-05   -0.16979E-06  3000   0.870E-03    0.119E-02
RMM:   4    -0.251951824008E+02    0.15966E-06   -0.86323E-07  2598   0.718E-03    0.134E-03
RMM:   5    -0.251951823945E+02    0.63523E-08   -0.13239E-07  2325   0.300E-03
   8 F= -.26509972E+02 E0= -.26509818E+02  d E =-.483766E-01
 curvature:  -1.12 expect dE=-0.434E-02 dE for cont linesearch -0.104E-07
 trial: gam= 0.18816 g(F)=  0.246E-43 g(S)=  0.389E-02 ort =-0.212E-04 (trialstep = 0.114E+01)
 search vector abs. value=  0.558E-02
 bond charge predicted
       N       E                     dE             d eps       ncg     rms          rms(c)
DAV:   1    -0.252156356196E+02   -0.20453E-01   -0.20903E-01  4342   0.428E+00    0.124E+00
RMM:   2    -0.252136294460E+02    0.20062E-02   -0.31972E-03  4320   0.478E-01    0.552E-01
RMM:   3    -0.252130492093E+02    0.58024E-03   -0.64468E-04  4327   0.188E-01    0.191E-01
RMM:   4    -0.252129826212E+02    0.66588E-04   -0.13825E-04  4323   0.885E-02    0.113E-02
RMM:   5    -0.252129808534E+02    0.17678E-05   -0.54902E-06  3803   0.153E-02    0.212E-03
RMM:   6    -0.252129806622E+02    0.19116E-06   -0.29155E-07  2625   0.385E-03
   9 F= -.26508140E+02 E0= -.26508191E+02  d E =0.183251E-02
 trial-energy change:    0.001833  1 .order    0.001810   -0.004422    0.008041
 step:   0.4011(harm=  0.4039)  dis= 0.00000  next Energy=   -26.510750 (dE=-0.778E-03)
 bond charge predicted
       N       E                     dE             d eps       ncg     rms          rms(c)
DAV:   1    -0.252039838894E+02    0.89970E-02   -0.88098E-02  4340   0.279E+00    0.804E-01
RMM:   2    -0.252031643153E+02    0.81957E-03   -0.13103E-03  4320   0.308E-01    0.356E-01
RMM:   3    -0.252029375591E+02    0.22676E-03   -0.26991E-04  4326   0.122E-01    0.122E-01
RMM:   4    -0.252029177905E+02    0.19769E-04   -0.57300E-05  4323   0.573E-02    0.742E-03
RMM:   5    -0.252029191138E+02   -0.13233E-05   -0.20618E-06  3046   0.961E-03    0.150E-03
RMM:   6    -0.252029192858E+02   -0.17209E-06   -0.19098E-07  2361   0.328E-03
  10 F= -.26510741E+02 E0= -.26510651E+02  d E =-.769071E-03
 curvature:  -0.29 expect dE=-0.394E-05 dE for cont linesearch -0.620E-07
 trial: gam=-0.03507 g(F)=  0.594E-43 g(S)=  0.136E-04 ort = 0.345E-04 (trialstep = 0.991E+00)
 search vector abs. value=  0.180E-04
 reached required accuracy - stopping structural energy minimisation
 writing wavefunctions
 augmentation electrons   1.1769809082966993     
 soft         electrons   10.845363694161229     
 augmentation electrons   1.1769809082966993     
 soft         electrons   10.845363694161229     
 augmentation electrons   1.1769809082966993     
 soft         electrons   10.845363694161229     
 augmentation electrons   1.1769809082966993     
 soft         electrons   10.845363694161229     
 total        electrons   12.022344602457927     
 total        electrons   12.022344602457927     
 total        electrons   12.022344602457927     
 total        electrons   12.022344602457927     
