ESCALE ; pCOHP file generated by LOBSTER. Energy is shifted such that the Fermi level lies at 0 eV.
       353          1        501  -7.76084e+00   1.72893e+01   8.27122e+00 
Average
No.1:Mo2->Mo1(3.1204103395961482)
No.2:Mo2->Mo1(3.1204103390854865)
No.3:Mo3->Mo1(3.0407696979953487)
No.4:Mo3->Mo1(3.0407695670274908)
No.5:Mo5->Mo1(3.0440282729527768)
No.6:Mo5->Mo1(3.0440282716507037)
No.7:V6->Mo1(3.044028330539899)
No.8:V6->Mo1(3.0440282140099373)
No.9:B8->Mo1(2.4084809751463037)
No.10:B9->Mo1(2.4084810569342405)
No.11:B10->Mo1(2.3864574054080947)
No.12:B11->Mo1(2.3864574866520276)
No.13:B12->Mo1(2.3690801224648501)
No.14:B13->Mo1(2.3690802039587879)
No.15:B14->Mo1(3.8995121946797986)
No.16:B14->Mo1(3.8421492533702382)
No.17:B14->Mo1(3.8584874303894177)
No.18:B15->Mo1(3.8995122451950124)
No.19:B15->Mo1(3.8421493046396393)
No.20:B15->Mo1(3.8584874814417267)
No.21:B16->Mo1(3.8584874330419088)
No.22:B16->Mo1(3.8421490669956126)
No.23:B16->Mo1(3.8995123827665354)
No.24:B17->Mo1(3.8584874840942178)
No.25:B17->Mo1(3.8421491182650165)
No.26:B17->Mo1(3.8995124332817466)
No.27:B18->Mo1(2.3690800352974208)
No.28:B19->Mo1(2.3690801167913613)
No.29:B20->Mo1(2.3864573921445289)
No.30:B21->Mo1(2.3864574733884623)
No.31:B22->Mo1(2.4084810362081641)
No.32:B23->Mo1(2.4084811179960992)
No.33:Mo4->Mo2(3.0407696979953487)
No.34:Mo4->Mo2(3.0407695670274908)
No.35:V7->Mo2(3.0440282729527768)
No.36:V7->Mo2(3.0440282716507037)
No.37:B8->Mo2(2.3379417666845437)
No.38:B9->Mo2(2.3379416877015804)
No.39:B10->Mo2(2.3492226092839319)
No.40:B11->Mo2(2.3492225293553446)
No.41:B12->Mo2(2.3405363041375389)
No.42:B13->Mo2(2.3405362235607114)
No.43:B14->Mo2(3.85634366378605)
No.44:B14->Mo2(3.7983288406797842)
No.45:B14->Mo2(3.8148546954293669)
No.46:B15->Mo2(3.8563436159019444)
No.47:B15->Mo2(3.7983287920643072)
No.48:B15->Mo2(3.8148546470244908)
No.49:B16->Mo2(3.8148546981121965)
No.50:B16->Mo2(3.798328652154999)
No.51:B16->Mo2(3.85634385397826)
No.52:B17->Mo2(3.8148546497073204)
No.53:B17->Mo2(3.7983286035395198)
No.54:B17->Mo2(3.8563438060941566)
No.55:B18->Mo2(2.3405362159070662)
No.56:B19->Mo2(2.3405361353302361)
No.57:B20->Mo2(2.3492225958101405)
No.58:B21->Mo2(2.3492225158815523)
No.59:B22->Mo2(2.3379418295887322)
No.60:B23->Mo2(2.3379417506057703)
No.61:Mo4->Mo3(3.1204103395961482)
No.62:Mo4->Mo3(3.1204103390854865)
No.63:Mo5->Mo3(3.044028213508065)
No.64:Mo5->Mo3(3.0440283310417713)
No.65:V6->Mo3(3.0440282726523056)
No.66:V6->Mo3(3.0440282719511753)
No.67:B8->Mo3(3.8584874719293083)
No.68:B8->Mo3(3.8421491591667492)
No.69:B8->Mo3(3.8995122489239371)
No.70:B9->Mo3(3.8584875229816165)
No.71:B9->Mo3(3.8421492104361517)
No.72:B9->Mo3(3.8995122994391505)
No.73:B10->Mo3(2.3864574789139485)
No.74:B11->Mo3(2.3864575601578792)
No.75:B12->Mo3(2.3690801860463875)
No.76:B13->Mo3(2.3690802675403226)
No.77:B14->Mo3(2.4084809420531887)
No.78:B15->Mo3(2.4084810238411269)
No.79:B16->Mo3(2.408481053770211)
No.80:B17->Mo3(2.4084811355581452)
No.81:B18->Mo3(2.3690804698586172)
No.82:B19->Mo3(2.369080551352543)
No.83:B20->Mo3(2.3864569497109547)
No.84:B21->Mo3(2.3864570309549031)
No.85:B22->Mo3(3.8995119028500089)
No.86:B22->Mo3(3.8421491309951175)
No.87:B22->Mo3(3.8584878410893788)
No.88:B23->Mo3(3.8995119533652267)
No.89:B23->Mo3(3.8421491822645204)
No.90:B23->Mo3(3.8584878921416825)
No.91:V7->Mo4(3.044028213508065)
No.92:V7->Mo4(3.0440283310417713)
No.93:B8->Mo4(3.8148547374443735)
No.94:B8->Mo4(3.7983287453894921)
No.95:B8->Mo4(3.8563437186374063)
No.96:B9->Mo4(3.8148546890394983)
No.97:B9->Mo4(3.7983286967740142)
No.98:B9->Mo4(3.8563436707533012)
No.99:B10->Mo4(2.3492226839548414)
No.100:B11->Mo4(2.3492226040262563)
No.101:B12->Mo4(2.3405363684944791)
No.102:B13->Mo4(2.3405362879176543)
No.103:B14->Mo4(2.3379417325929603)
No.104:B15->Mo4(2.3379416536099953)
No.105:B16->Mo4(2.3379418476806526)
No.106:B17->Mo4(2.3379417686976911)
No.107:B18->Mo4(2.3405366557679175)
No.108:B19->Mo4(2.340536575191102)
No.109:B20->Mo4(2.3492221463640646)
No.110:B21->Mo4(2.3492220664354617)
No.111:B22->Mo4(3.8563433686894708)
No.112:B22->Mo4(3.7983287168928515)
No.113:B22->Mo4(3.8148551108267443)
No.114:B23->Mo4(3.8563433208053612)
No.115:B23->Mo4(3.7983286682773727)
No.116:B23->Mo4(3.8148550624218736)
No.117:V6->Mo5(3.0407696978452736)
No.118:V6->Mo5(3.0407695671775659)
No.119:V7->Mo5(3.1204103395961482)
No.120:V7->Mo5(3.1204103390854865)
No.121:B8->Mo5(2.3912433372353337)
No.122:B9->Mo5(2.3912434196128514)
No.123:B10->Mo5(3.8330275049768194)
No.124:B10->Mo5(3.9026240258325204)
No.125:B10->Mo5(3.8330275594078977)
No.126:B11->Mo5(3.8330275555595996)
No.127:B11->Mo5(3.9026240755132444)
No.128:B11->Mo5(3.833027609990677)
No.129:B12->Mo5(2.3538981463014301)
No.130:B13->Mo5(2.3538982283209804)
No.131:B14->Mo5(2.3912434000316996)
No.132:B15->Mo5(2.391243482409215)
No.133:B16->Mo5(2.3912434036830232)
No.134:B17->Mo5(2.3912434860605387)
No.135:B18->Mo5(2.3538980586378084)
No.136:B19->Mo5(2.3538981406573622)
No.137:B20->Mo5(3.8330275523537045)
No.138:B20->Mo5(3.902623458306449)
No.139:B20->Mo5(3.8330280662614822)
No.140:B21->Mo5(3.8330276029364838)
No.141:B21->Mo5(3.9026235079871801)
No.142:B21->Mo5(3.8330281168442548)
No.143:B22->Mo5(2.3912430952004944)
No.144:B23->Mo5(2.3912431775780205)
No.145:B8->V6(2.3577340273196694)
No.146:B9->V6(2.3577341108679781)
No.147:B10->V6(2.3336281209724627)
No.148:B11->V6(2.3336282040556169)
No.149:B12->V6(3.8454020205925543)
No.150:B12->V6(3.8691318665850076)
No.151:B12->V6(3.8454019804559638)
No.152:B13->V6(3.8454020707994427)
No.153:B13->V6(3.8691319164839708)
No.154:B13->V6(3.8454020306628527)
No.155:B14->V6(2.3577341011401147)
No.156:B15->V6(2.3577341846884208)
No.157:B16->V6(2.3577338894169317)
No.158:B17->V6(2.3577339729652449)
No.159:B18->V6(3.8454016328240739)
No.160:B18->V6(3.869132029305498)
No.161:B18->V6(3.8454022065652542)
No.162:B19->V6(3.8454016830309672)
No.163:B19->V6(3.8691320792044595)
No.164:B19->V6(3.84540225677214)
No.165:B20->V6(2.3336285322367316)
No.166:B21->V6(2.3336286153198715)
No.167:B22->V6(2.3577343064381711)
No.168:B23->V6(2.3577343899864696)
No.169:B8->V7(2.3201801211627369)
No.170:B9->V7(2.3201800415751359)
No.171:B10->V7(3.8099564005448263)
No.172:B10->V7(3.8799667791295454)
No.173:B10->V7(3.8099564553055107)
No.174:B11->V7(3.8099563512607868)
No.175:B11->V7(3.87996673073479)
No.176:B11->V7(3.8099564060214717)
No.177:B12->V7(2.3251679611350764)
No.178:B13->V7(2.3251678800256719)
No.179:B14->V7(2.3201801858824496)
No.180:B15->V7(2.3201801062948508)
No.181:B16->V7(2.3201801896456073)
No.182:B17->V7(2.3201801100580086)
No.183:B18->V7(2.3251678723882678)
No.184:B19->V7(2.3251677912788598)
No.185:B20->V7(3.809956448208601)
No.186:B20->V7(3.8799662082893782)
No.187:B20->V7(3.8099569652283352)
No.188:B21->V7(3.8099563989245619)
No.189:B21->V7(3.8799661598946158)
No.190:B21->V7(3.8099569159443027)
No.191:B22->V7(2.3201798717147768)
No.192:B23->V7(2.3201797921271674)
No.193:B9->B8(3.0131137826492917)
No.194:B9->B8(3.227706896032343)
No.195:B10->B8(3.1248614419463099)
No.196:B10->B8(2.9634945778367463)
No.197:B12->B8(3.0191641504443298)
No.198:B12->B8(3.069891247887401)
No.199:B14->B8(3.0931033830826395)
No.200:B14->B8(2.9884358819402013)
No.201:B16->B8(1.6990583068819527)
No.202:B17->B8(3.4591406154384199)
No.203:B17->B8(3.6475870019616132)
No.204:B18->B8(1.7865012953679782)
No.205:B19->B8(3.5304291409676076)
No.206:B19->B8(3.6609302265690511)
No.207:B20->B8(1.7242381802449225)
No.208:B21->B8(3.4935482684311085)
No.209:B21->B8(3.6369166881622315)
No.210:B22->B8(3.5290346353750541)
No.211:B22->B8(3.5756163105227028)
No.212:B22->B8(3.4376664451218688)
No.213:B11->B9(3.1248614419463099)
No.214:B11->B9(2.9634945778367463)
No.215:B13->B9(3.0191641504443298)
No.216:B13->B9(3.069891247887401)
No.217:B15->B9(3.0931033830826395)
No.218:B15->B9(2.9884358819402013)
No.219:B16->B9(3.6475870019616132)
No.220:B16->B9(3.4591406154384199)
No.221:B17->B9(1.6990583068819527)
No.222:B18->B9(3.6609302265690511)
No.223:B18->B9(3.5304291409676076)
No.224:B19->B9(1.7865012953679782)
No.225:B20->B9(3.6369166881622315)
No.226:B20->B9(3.493548268431109)
No.227:B21->B9(1.7242381802449225)
No.228:B23->B9(3.5290346353750541)
No.229:B23->B9(3.5756163105227028)
No.230:B23->B9(3.4376664451218688)
No.231:B11->B10(3.0639009568123607)
No.232:B11->B10(3.1769197218692744)
No.233:B12->B10(3.0409637205038047)
No.234:B12->B10(3.0409634704818886)
No.235:B14->B10(3.1248614394033272)
No.236:B14->B10(2.9634945788743301)
No.237:B16->B10(1.7242375333710243)
No.238:B17->B10(3.4935479491670169)
No.239:B17->B10(3.6369163814836334)
No.240:B18->B10(1.8214892468487136)
No.241:B19->B10(3.5702177765108125)
No.242:B19->B10(3.6562250381231687)
No.243:B20->B10(3.562007018425752)
No.244:B20->B10(3.4191324225984432)
No.245:B20->B10(3.5620075127707245)
No.246:B22->B10(1.7242378862246246)
No.247:B23->B10(3.4935481233176162)
No.248:B23->B10(3.6369165487691593)
No.249:B13->B11(3.0409637205038047)
No.250:B13->B11(3.0409634704818886)
No.251:B15->B11(3.1248614394033272)
No.252:B15->B11(2.9634945788743301)
No.253:B16->B11(3.6369163814836334)
No.254:B16->B11(3.4935479491670169)
No.255:B17->B11(1.7242375333710243)
No.256:B18->B11(3.6562250381231687)
No.257:B18->B11(3.5702177765108121)
No.258:B19->B11(1.8214892468487136)
No.259:B21->B11(3.562007018425752)
No.260:B21->B11(3.4191324225984432)
No.261:B21->B11(3.5620075127707245)
No.262:B22->B11(3.6369165487691593)
No.263:B22->B11(3.4935481233176162)
No.264:B23->B11(1.7242378862246246)
No.265:B13->B12(3.0773292049028012)
No.266:B13->B12(3.1634914737788336)
No.267:B14->B12(3.0191641500703366)
No.268:B14->B12(3.0698912439269779)
No.269:B16->B12(1.7865019095533925)
No.270:B17->B12(3.5304294517635859)
No.271:B17->B12(3.6609305262860943)
No.272:B18->B12(3.5273905579333058)
No.273:B18->B12(3.4864978954290988)
No.274:B18->B12(3.5273912270624828)
No.275:B20->B12(1.8214885071605473)
No.276:B21->B12(3.5702173991293966)
No.277:B21->B12(3.6562246696190912)
No.278:B22->B12(1.786501295609795)
No.279:B23->B12(3.5304291410899742)
No.280:B23->B12(3.6609302266870558)
No.281:B15->B13(3.0191641500703366)
No.282:B15->B13(3.0698912439269779)
No.283:B16->B13(3.6609305262860943)
No.284:B16->B13(3.5304294517635859)
No.285:B17->B13(1.7865019095533925)
No.286:B19->B13(3.5273905579333058)
No.287:B19->B13(3.4864978954290988)
No.288:B19->B13(3.5273912270624828)
No.289:B20->B13(3.6562246696190912)
No.290:B20->B13(3.5702173991293971)
No.291:B21->B13(1.8214885071605473)
No.292:B22->B13(3.6609302266870558)
No.293:B22->B13(3.5304291410899742)
No.294:B23->B13(1.786501295609795)
No.295:B15->B14(3.0131137826492917)
No.296:B15->B14(3.227706896032343)
No.297:B16->B14(3.4376659743512148)
No.298:B16->B14(3.5756162895997248)
No.299:B16->B14(3.5290351385257455)
No.300:B18->B14(1.7865018220413413)
No.301:B19->B14(3.5304294074798959)
No.302:B19->B14(3.6609304835809833)
No.303:B20->B14(1.7242375330303059)
No.304:B21->B14(3.4935479489988555)
No.305:B21->B14(3.6369163813221008)
No.306:B22->B14(1.6990584261213684)
No.307:B23->B14(3.4591406740063557)
No.308:B23->B14(3.6475870575037361)
No.309:B17->B15(3.4376659743512148)
No.310:B17->B15(3.5756162895997248)
No.311:B17->B15(3.5290351385257455)
No.312:B18->B15(3.6609304835809833)
No.313:B18->B15(3.5304294074798959)
No.314:B19->B15(1.7865018220413413)
No.315:B20->B15(3.6369163813221008)
No.316:B20->B15(3.4935479489988559)
No.317:B21->B15(1.7242375330303059)
No.318:B22->B15(3.6475870575037361)
No.319:B22->B15(3.4591406740063557)
No.320:B23->B15(1.6990584261213684)
No.321:B17->B16(3.0131137826492917)
No.322:B17->B16(3.227706896032343)
No.323:B18->B16(3.0191638256595801)
No.324:B18->B16(3.0698915709075298)
No.325:B20->B16(3.1248609616364122)
No.326:B20->B16(2.9634950566387519)
No.327:B22->B16(3.0931031768485129)
No.328:B22->B16(2.9884360881743266)
No.329:B19->B17(3.0191638256595801)
No.330:B19->B17(3.0698915709075298)
No.331:B21->B17(3.1248609616364122)
No.332:B21->B17(2.9634950566387519)
No.333:B23->B17(3.0931031768485129)
No.334:B23->B17(2.9884360881743266)
No.335:B19->B18(3.0773292049028012)
No.336:B19->B18(3.1634914737788336)
No.337:B20->B18(3.040963560846337)
No.338:B20->B18(3.0409636137531741)
No.339:B22->B18(3.0191639120902924)
No.340:B22->B18(3.0698914862427422)
No.341:B21->B19(3.040963560846337)
No.342:B21->B19(3.0409636137531741)
No.343:B23->B19(3.0191639120902924)
No.344:B23->B19(3.0698914862427422)
No.345:B21->B20(3.0639009568123607)
No.346:B21->B20(3.1769197218692744)
No.347:B22->B20(3.1248609947166246)
No.348:B22->B20(2.963495021906736)
No.349:B23->B21(3.1248609947166246)
No.350:B23->B21(2.963495021906736)
No.351:B23->B22(3.0131137826492917)
No.352:B23->B22(3.227706896032343)
-16.03206   0.00000   0.00000   0.00000   0.00000   0.00000   0.00000   0.00000   0.00000   0.00000   0.00000   0.00000   0.00000   0.00000   0.00000   0.00000   0.00000   0.00000   0.00000   0.00000   0.00000   0.00000   0.00000   0.00000   0.00000   0.00000   0.00000   0.00000   0.00000   0.00000   0.00000   0.00000   0.00000   0.00000   0.00000   0.00000   0.00000   0.00000   0.00000   0.00000   0.00000   0.00000   0.00000   0.00000   0.00000   0.00000   0.00000   0.00000   0.00000   0.00000   0.00000   0.00000   0.00000   0.00000   0.00000   0.00000   0.00000   0.00000   0.00000   0.00000   0.00000   0.00000   0.00000   0.00000   0.00000   0.00000   0.00000   0.00000   0.00000   0.00000   0.00000   0.00000   0.00000   0.00000   0.00000   0.00000   0.00000   0.00000   0.00000   0.00000   0.00000   0.00000   0.00000   0.00000   0.00000   0.00000   0.00000   0.00000   0.00000   0.00000   0.00000   0.00000   0.00000   0.00000   0.00000   0.00000   0.00000   0.00000   0.00000   0.00000   0.00000   0.00000   0.00000   0.00000   0.00000   0.00000   0.00000   0.00000   0.00000   0.00000   0.00000   0.00000   0.00000   0.00000   0.00000   0.00000   0.00000   0.00000   0.00000   0.00000   0.00000   0.00000   0.00000   0.00000   0.00000   0.00000   0.00000   0.00000   0.00000   0.00000   0.00000   0.00000   0.00000   0.00000   0.00000   0.00000   0.00000   0.00000   0.00000   0.00000   0.00000   0.00000   0.00000   0.00000   0.00000   0.00000   0.00000   0.00000   0.00000   0.00000   0.00000   0.00000   0.00000   0.00000   0.00000   0.00000   0.00000   0.00000   0.00000   0.00000   0.00000   0.00000   0.00000   0.00000   0.00000   0.00000   0.00000   0.00000   0.00000   0.00000   0.00000   0.00000   0.00000   0.00000   0.00000   0.00000   0.00000   0.00000   0.00000   0.00000   0.00000   0.00000   0.00000   0.00000   0.00000   0.00000   0.00000   0.00000   0.00000   0.00000   0.00000   0.00000   0.00000   0.00000   0.00000   0.00000   0.00000   0.00000   0.00000   0.00000   0.00000   0.00000   0.00000   0.00000   0.00000   0.00000   0.00000   0.00000   0.00000   0.00000   0.00000   0.00000   0.00000   0.00000   0.00000   0.00000   0.00000   0.00000   0.00000   0.00000   0.00000   0.00000   0.00000   0.00000   0.00000   0.00000   0.00000   0.00000   0.00000   0.00000   0.00000   0.00000   0.00000   0.00000   0.00000   0.00000   0.00000   0.00000   0.00000   0.00000   0.00000   0.00000   0.00000   0.00000   0.00000   0.00000   0.00000   0.00000   0.00000   0.00000   0.00000   0.00000   0.00000   0.00000   0.00000   0.00000   0.00000   0.00000   0.00000   0.00000   0.00000   0.00000   0.00000   0.00000   0.00000   0.00000   0.00000   0.00000   0.00000   0.00000   0.00000   0.00000   0.00000   0.00000   0.00000   0.00000   0.00000   0.00000   0.00000   0.00000   0.00000   0.00000   0.00000   0.00000   0.00000   0.00000   0.00000   0.00000   0.00000   0.00000   0.00000   0.00000   0.00000   0.00000   0.00000   0.00000   0.00000   0.00000   0.00000   0.00000   0.00000   0.00000   0.00000   0.00000   0.00000   0.00000   0.00000   0.00000   0.00000   0.00000   0.00000   0.00000   0.00000   0.00000   0.00000   0.00000   0.00000   0.00000   0.00000   0.00000   0.00000   0.00000   0.00000   0.00000   0.00000   0.00000   0.00000   0.00000   0.00000   0.00000   0.00000   0.00000   0.00000   0.00000   0.00000   0.00000   0.00000   0.00000   0.00000   0.00000   0.00000   0.00000   0.00000   0.00000   0.00000   0.00000   0.00000   0.00000   0.00000   0.00000   0.00000   0.00000   0.00000   0.00000   0.00000   0.00000   0.00000   0.00000   0.00000   0.00000   0.00000   0.00000   0.00000   0.00000   0.00000   0.00000   0.00000   0.00000   0.00000   0.00000   0.00000   0.00000   0.00000   0.00000   0.00000   0.00000   0.00000   0.00000   0.00000   0.00000   0.00000   0.00000   0.00000   0.00000   0.00000   0.00000   0.00000   0.00000   0.00000   0.00000   0.00000   0.00000   0.00000   0.00000   0.00000   0.00000   0.00000   0.00000   0.00000   0.00000   0.00000   0.00000   0.00000   0.00000   0.00000   0.00000   0.00000   0.00000   0.00000   0.00000   0.00000   0.00000   0.00000   0.00000   0.00000   0.00000   0.00000   0.00000   0.00000   0.00000   0.00000   0.00000   0.00000   0.00000   0.00000   0.00000   0.00000   0.00000   0.00000   0.00000   0.00000   0.00000   0.00000   0.00000   0.00000   0.00000   0.00000   0.00000   0.00000   0.00000   0.00000   0.00000   0.00000   0.00000   0.00000   0.00000   0.00000   0.00000   0.00000   0.00000   0.00000   0.00000   0.00000   0.00000   0.00000   0.00000   0.00000   0.00000   0.00000   0.00000   0.00000   0.00000   0.00000   0.00000   0.00000   0.00000   0.00000   0.00000   0.00000   0.00000   0.00000   0.00000   0.00000   0.00000   0.00000   0.00000   0.00000   0.00000   0.00000   0.00000   0.00000   0.00000   0.00000   0.00000   0.00000   0.00000   0.00000   0.00000   0.00000   0.00000   0.00000   0.00000   0.00000   0.00000   0.00000   0.00000   0.00000   0.00000   0.00000   0.00000   0.00000   0.00000   0.00000   0.00000   0.00000   0.00000   0.00000   0.00000   0.00000   0.00000   0.00000   0.00000   0.00000   0.00000   0.00000   0.00000   0.00000   0.00000   0.00000   0.00000   0.00000   0.00000   0.00000   0.00000   0.00000   0.00000   0.00000   0.00000   0.00000   0.00000   0.00000   0.00000   0.00000   0.00000   0.00000   0.00000   0.00000   0.00000   0.00000   0.00000   0.00000   0.00000   0.00000   0.00000   0.00000   0.00000   0.00000   0.00000   0.00000   0.00000   0.00000   0.00000   0.00000   0.00000   0.00000   0.00000   0.00000   0.00000   0.00000   0.00000   0.00000   0.00000   0.00000   0.00000   0.00000   0.00000   0.00000   0.00000   0.00000   0.00000   0.00000   0.00000   0.00000   0.00000   0.00000   0.00000   0.00000   0.00000   0.00000   0.00000   0.00000   0.00000   0.00000   0.00000   0.00000   0.00000   0.00000   0.00000   0.00000   0.00000   0.00000   0.00000   0.00000   0.00000   0.00000   0.00000   0.00000   0.00000   0.00000   0.00000   0.00000   0.00000   0.00000   0.00000   0.00000   0.00000   0.00000   0.00000   0.00000   0.00000   0.00000   0.00000   0.00000   0.00000   0.00000   0.00000   0.00000   0.00000   0.00000   0.00000   0.00000   0.00000   0.00000   0.00000   0.00000   0.00000   0.00000   0.00000   0.00000   0.00000   0.00000   0.00000   0.00000   0.00000   0.00000   0.00000   0.00000   0.00000   0.00000   0.00000   0.00000   0.00000   0.00000   0.00000   0.00000   0.00000   0.00000   0.00000   0.00000   0.00000   0.00000   0.00000   0.00000   0.00000   0.00000   0.00000   0.00000   0.00000   0.00000   0.00000   0.00000   0.00000   0.00000   0.00000   0.00000   0.00000   0.00000   0.00000   0.00000   0.00000   0.00000   0.00000   0.00000   0.00000   0.00000   0.00000   0.00000   0.00000   0.00000   0.00000   0.00000   0.00000   0.00000   0.00000   0.00000   0.00000   0.00000   0.00000   0.00000   0.00000   0.00000   0.00000   0.00000   0.00000   0.00000   0.00000   0.00000   0.00000   0.00000   0.00000   0.00000   0.00000   0.00000   0.00000   0.00000   0.00000   0.00000
-15.98196   0.00000   0.00000   0.00000   0.00000   0.00000   0.00000   0.00000   0.00000   0.00000   0.00000   0.00000   0.00000   0.00000   0.00000   0.00000   0.00000   0.00000   0.00000   0.00000   0.00000   0.00000   0.00000   0.00000   0.00000   0.00000   0.00000   0.00000   0.00000   0.00000   0.00000   0.00000   0.00000   0.00000   0.00000   0.00000   0.00000   0.00000   0.00000   0.00000   0.00000   0.00000   0.00000   0.00000   0.00000   0.00000   0.00000   0.00000   0.00000   0.00000   0.00000   0.00000   0.00000   0.00000   0.00000   0.00000   0.00000   0.00000   0.00000   0.00000   0.00000   0.00000   0.00000   0.00000   0.00000   0.00000   0.00000   0.00000   0.00000   0.00000   0.00000   0.00000   0.00000   0.00000   0.00000   0.00000   0.00000   0.00000   0.00000   0.00000   0.00000   0.00000   0.00000   0.00000   0.00000   0.00000   0.00000   0.00000   0.00000   0.00000   0.00000   0.00000   0.00000   0.00000   0.00000   0.00000   0.00000   0.00000   0.00000   0.00000   0.00000   0.00000   0.00000   0.00000   0.00000   0.00000   0.00000   0.00000   0.00000   0.00000   0.00000   0.00000   0.00000   0.00000   0.00000   0.00000   0.00000   0.00000   0.00000   0.00000   0.00000   0.00000   0.00000   0.00000   0.00000   0.00000   0.00000   0.00000   0.00000   0.00000   0.00000   0.00000   0.00000   0.00000   0.00000   0.00000   0.00000   0.00000   0.00000   0.00000   0.00000   0.00000   0.00000   0.00000   0.00000   0.00000   0.00000   0.00000   0.00000   0.00000   0.00000   0.00000   0.00000   0.00000   0.00000   0.00000   0.00000   0.00000   0.00000   0.00000   0.00000   0.00000   0.00000   0.00000   0.00000   0.00000   0.00000   0.00000   0.00000   0.00000   0.00000   0.00000   0.00000   0.00000   0.00000   0.00000   0.00000   0.00000   0.00000   0.00000   0.00000   0.00000   0.00000   0.00000   0.00000   0.00000   0.00000   0.00000   0.00000   0.00000   0.00000   0.00000   0.00000   0.00000   0.00000   0.00000   0.00000   0.00000   0.00000   0.00000   0.00000   0.00000   0.00000   0.00000   0.00000   0.00000   0.00000   0.00000   0.00000   0.00000   0.00000   0.00000   0.00000   0.00000   0.00000   0.00000   0.00000   0.00000   0.00000   0.00000   0.00000   0.00000   0.00000   0.00000   0.00000   0.00000   0.00000   0.00000   0.00000   0.00000   0.00000   0.00000   0.00000   0.00000   0.00000   0.00000   0.00000   0.00000   0.00000   0.00000   0.00000   0.00000   0.00000   0.00000   0.00000   0.00000   0.00000   0.00000   0.00000   0.00000   0.00000   0.00000   0.00000   0.00000   0.00000   0.00000   0.00000   0.00000   0.00000   0.00000   0.00000   0.00000   0.00000   0.00000   0.00000   0.00000   0.00000   0.00000   0.00000   0.00000   0.00000   0.00000   0.00000   0.00000   0.00000   0.00000   0.00000   0.00000   0.00000   0.00000   0.00000   0.00000   0.00000   0.00000   0.00000   0.00000   0.00000   0.00000   0.00000   0.00000   0.00000   0.00000   0.00000   0.00000   0.00000   0.00000   0.00000   0.00000   0.00000   0.00000   0.00000   0.00000   0.00000   0.00000   0.00000   0.00000   0.00000   0.00000   0.00000   0.00000   0.00000   0.00000   0.00000   0.00000   0.00000   0.00000   0.00000   0.00000   0.00000   0.00000   0.00000   0.00000   0.00000   0.00000   0.00000   0.00000   0.00000   0.00000   0.00000   0.00000   0.00000   0.00000   0.00000   0.00000   0.00000   0.00000   0.00000   0.00000   0.00000   0.00000   0.00000   0.00000   0.00000   0.00000   0.00000   0.00000   0.00000   0.00000   0.00000   0.00000   0.00000   0.00000   0.00000   0.00000   0.00000   0.00000   0.00000   0.00000   0.00000   0.00000   0.00000   0.00000   0.00000   0.00000   0.00000   0.00000   0.00000   0.00000   0.00000   0.00000   0.00000   0.00000   0.00000   0.00000   0.00000   0.00000   0.00000   0.00000   0.00000   0.00000   0.00000   0.00000   0.00000   0.00000   0.00000   0.00000   0.00000   0.00000   0.00000   0.00000   0.00000   0.00000   0.00000   0.00000   0.00000   0.00000   0.00000   0.00000   0.00000   0.00000   0.00000   0.00000   0.00000   0.00000   0.00000   0.00000   0.00000   0.00000   0.00000   0.00000   0.00000   0.00000   0.00000   0.00000   0.00000   0.00000   0.00000   0.00000   0.00000   0.00000   0.00000   0.00000   0.00000   0.00000   0.00000   0.00000   0.00000   0.00000   0.00000   0.00000   0.00000   0.00000   0.00000   0.00000   0.00000   0.00000   0.00000   0.00000   0.00000   0.00000   0.00000   0.00000   0.00000   0.00000   0.00000   0.00000   0.00000   0.00000   0.00000   0.00000   0.00000   0.00000   0.00000   0.00000   0.00000   0.00000   0.00000   0.00000   0.00000   0.00000   0.00000   0.00000   0.00000   0.00000   0.00000   0.00000   0.00000   0.00000   0.00000   0.00000   0.00000   0.00000   0.00000   0.00000   0.00000   0.00000   0.00000   0.00000   0.00000   0.00000   0.00000   0.00000   0.00000   0.00000   0.00000   0.00000   0.00000   0.00000   0.00000   0.00000   0.00000   0.00000   0.00000   0.00000   0.00000   0.00000   0.00000   0.00000   0.00000   0.00000   0.00000   0.00000   0.00000   0.00000   0.00000   0.00000   0.00000   0.00000   0.00000   0.00000   0.00000   0.00000   0.00000   0.00000   0.00000   0.00000   0.00000   0.00000   0.00000   0.00000   0.00000   0.00000   0.00000   0.00000   0.00000   0.00000   0.00000   0.00000   0.00000   0.00000   0.00000   0.00000   0.00000   0.00000   0.00000   0.00000   0.00000   0.00000   0.00000   0.00000   0.00000   0.00000   0.00000   0.00000   0.00000   0.00000   0.00000   0.00000   0.00000   0.00000   0.00000   0.00000   0.00000   0.00000   0.00000   0.00000   0.00000   0.00000   0.00000   0.00000   0.00000   0.00000   0.00000   0.00000   0.00000   0.00000   0.00000   0.00000   0.00000   0.00000   0.00000   0.00000   0.00000   0.00000   0.00000   0.00000   0.00000   0.00000   0.00000   0.00000   0.00000   0.00000   0.00000   0.00000   0.00000   0.00000   0.00000   0.00000   0.00000   0.00000   0.00000   0.00000   0.00000   0.00000   0.00000   0.00000   0.00000   0.00000   0.00000   0.00000   0.00000   0.00000   0.00000   0.00000   0.00000   0.00000   0.00000   0.00000   0.00000   0.00000   0.00000   0.00000   0.00000   0.00000   0.00000   0.00000   0.00000   0.00000   0.00000   0.00000   0.00000   0.00000   0.00000   0.00000   0.00000   0.00000   0.00000   0.00000   0.00000   0.00000   0.00000   0.00000   0.00000   0.00000   0.00000   0.00000   0.00000   0.00000   0.00000   0.00000   0.00000   0.00000   0.00000   0.00000   0.00000   0.00000   0.00000   0.00000   0.00000   0.00000   0.00000   0.00000   0.00000   0.00000   0.00000   0.00000   0.00000   0.00000   0.00000   0.00000   0.00000   0.00000   0.00000   0.00000   0.00000   0.00000   0.00000   0.00000   0.00000   0.00000   0.00000   0.00000   0.00000   0.00000   0.00000   0.00000   0.00000   0.00000   0.00000   0.00000   0.00000   0.00000   0.00000   0.00000   0.00000   0.00000   0.00000   0.00000   0.00000   0.00000   0.00000   0.00000   0.00000   0.00000   0.00000   0.00000   0.00000   0.00000   0.00000   0.00000   0.00000   0.00000   0.00000   0.00000   0.00000   0.00000   0.00000