  23   23    1    1
  2.0017939e+02   6.0880565e-10   6.0880565e-10   6.2408207e-10   5.0000000e-16
            1.000000e-04
  CAR
 DOS and projected DOS file by LOBSTER. Energy is shifted such that the Fermi level lies at 0 eV. 
     17.28925556      -7.76084464   501       8.27121949       1.00000000
-16.03206   0.00000   0.00000
-15.98196   0.00000   0.00000
-15.93186   0.00000   0.00000
-15.88176   0.00000   0.00000
-15.83166   0.00000   0.00000
-15.78156   0.00000   0.00000
-15.73146   0.00000   0.00000
-15.68136   0.00000   0.00000
-15.63126   0.00000   0.00000
-15.58116   0.00000   0.00000
-15.53106   0.00000   0.00000
-15.48096   0.00000   0.00000
-15.43086   0.00000   0.00000
-15.38076   0.00000   0.00000
-15.33066   0.00000   0.00000
-15.28056   0.00000   0.00000
-15.23046   0.00000   0.00000
-15.18036   0.00000   0.00000
-15.13026   0.00000   0.00000
-15.08016   0.00000   0.00000
-15.03006   0.00000   0.00000
-14.97996   0.00000   0.00000
-14.92986   0.00000   0.00000
-14.87976   0.00000   0.00000
-14.82966   0.00000   0.00000
-14.77956   0.00000   0.00000
-14.72946   0.00000   0.00000
-14.67936   0.00000   0.00000
-14.62926   0.00000   0.00000
-14.57916   0.00000   0.00000
-14.52906   0.00000   0.00000
-14.47896   0.00000   0.00000
-14.42886   0.00000   0.00000
-14.37876   0.00006   0.00000
-14.32866   0.11107   0.00557
-14.27856   0.39947   0.02558
-14.22846   0.49924   0.05059
-14.17836   0.65765   0.08354
-14.12826   0.75160   0.12120
-14.07816   0.82005   0.16228
-14.02806   0.91330   0.20804
-13.97796   1.01005   0.25864
-13.92786   1.09576   0.31354
-13.87776   1.15936   0.37162
-13.82766   1.22762   0.43313
-13.77756   1.30163   0.49834
-13.72745   1.38629   0.56779
-13.67735   1.48475   0.64218
-13.62725   1.71299   0.72800
-13.57715   1.72938   0.81464
-13.52705   1.80716   0.90518
-13.47695   1.91407   1.00108
-13.42685   2.03392   1.10298
-13.37675   2.00926   1.20364
-13.32665   2.07530   1.30761
-13.27655   2.00406   1.40802
-13.22645   1.98757   1.50760
-13.17635   1.89960   1.60277
-13.12625   1.81572   1.69373
-13.07615   1.72714   1.78026
-13.02605   1.65817   1.86334
-12.97595   1.63874   1.94544
-12.92585   1.86323   2.03879
-12.87575   2.37436   2.15774
-12.82565   2.65122   2.29057
-12.77555   2.88466   2.43509
-12.72545   2.91451   2.58111
-12.67535   3.03565   2.73320
-12.62525   3.43208   2.90514
-12.57515   3.53246   3.08212
-12.52505   3.36135   3.25053
-12.47495   3.36866   3.41930
-12.42485   2.07268   3.52314
-12.37475   2.21853   3.63429
-12.32465   2.51828   3.76045
-12.27455   3.49932   3.93577
-12.22445   4.05625   4.13899
-12.17435   4.42188   4.36053
-12.12425   5.61332   4.64175
-12.07415   5.27931   4.90625
-12.02405   4.44362   5.12887
-11.97395   5.72981   5.41594
-11.92385   5.09462   5.67118
-11.87375   4.77096   5.91021
-11.82365   4.84996   6.15319
-11.77355   4.96917   6.40215
-11.72345   4.78171   6.64171
-11.67335   5.18740   6.90160
-11.62325   6.12592   7.20851
-11.57315   6.54643   7.53649
-11.52305   6.51177   7.86273
-11.47295   7.11558   8.21922
-11.42285   7.61387   8.60068
-11.37275   6.74584   8.93865
-11.32265   6.03078   9.24079
-11.27255   5.97771   9.54027
-11.22244   5.99560   9.84065
-11.17234   6.08120  10.14532
-11.12224   6.14647  10.45326
-11.07214   5.93795  10.75076
-11.02204   4.90435  10.99646
-10.97194   4.09718  11.20173
-10.92184   3.63403  11.38380
-10.87174   3.37256  11.55277
-10.82164   3.31882  11.71904
-10.77154   3.34195  11.88647
-10.72144   3.39884  12.05675
-10.67134   4.31827  12.27310
-10.62124   5.47592  12.54745
-10.57114   6.11183  12.85365
-10.52104   6.07904  13.15821
-10.47094   5.89330  13.45347
-10.42084   5.99058  13.75359
-10.37074   6.17353  14.06289
-10.32064   5.89046  14.35800
-10.27054   5.20824  14.61894
-10.22044   4.79552  14.85919
-10.17034   4.21587  15.07041
-10.12024   3.01261  15.22134
-10.07014   2.42967  15.34307
-10.02004   2.08314  15.44743
 -9.96994   1.84760  15.54000
 -9.91984   1.83367  15.63187
 -9.86974   2.09120  15.73664
 -9.81964   2.60619  15.86721
 -9.76954   2.69822  16.00239
 -9.71944   4.06827  16.20621
 -9.66934   1.95734  16.30427
 -9.61924   1.38838  16.37383
 -9.56914   1.80431  16.46423
 -9.51904   2.10370  16.56962
 -9.46894   2.22533  16.68111
 -9.41884   2.23846  16.79326
 -9.36874   2.51253  16.91914
 -9.31864   3.57594  17.09829
 -9.26854   5.12204  17.35491
 -9.21844   3.87142  17.54887
 -9.16834   4.22458  17.76052
 -9.11824   5.63970  18.04307
 -9.06814   5.99371  18.34336
 -9.01804   5.75842  18.63185
 -8.96794   5.56979  18.91090
 -8.91784   5.55286  19.18910
 -8.86774   5.66143  19.47274
 -8.81764   5.56004  19.75130
 -8.76754   5.40742  20.02221
 -8.71743   5.08773  20.27711
 -8.66733   4.53554  20.50434
 -8.61723   3.99493  20.70449
 -8.56713   4.31516  20.92068
 -8.51703   4.41278  21.14176
 -8.46693   3.66209  21.32523
 -8.41683   3.91330  21.52129
 -8.36673   4.11205  21.72730
 -8.31663   3.49795  21.90255
 -8.26653   3.96067  22.10098
 -8.21643   4.65400  22.33415
 -8.16633   4.89684  22.57948
 -8.11623   4.79542  22.81973
 -8.06613   5.26503  23.08351
 -8.01603   5.42097  23.35510
 -7.96593   5.75309  23.64333
 -7.91583   6.22443  23.95518
 -7.86573   6.57811  24.28474
 -7.81563   6.15001  24.59286
 -7.76553   5.08317  24.84753
 -7.71543   4.58560  25.07727
 -7.66533   4.39019  25.29722
 -7.61523   4.25842  25.51056
 -7.56513   4.36100  25.72905
 -7.51503   4.84831  25.97195
 -7.46493   5.22216  26.23358
 -7.41483   5.17098  26.49265
 -7.36473   5.48332  26.76737
 -7.31463   6.13479  27.07472
 -7.26453   5.54462  27.35251
 -7.21443   5.12934  27.60949
 -7.16433   5.23648  27.87184
 -7.11423   5.01491  28.12308
 -7.06413   5.11809  28.37950
 -7.01403   5.30283  28.64517
 -6.96393   5.17664  28.90453
 -6.91383   5.63802  29.18699
 -6.86373   5.72792  29.47396
 -6.81363   5.78406  29.76374
 -6.76353   7.31293  30.13012
 -6.71343   6.23616  30.44256
 -6.66333   5.41328  30.71376
 -6.61323   5.57250  30.99295
 -6.56313   5.20737  31.25384
 -6.51303   4.60061  31.48433
 -6.46293   5.90511  31.78017
 -6.41283   7.39359  32.15060
 -6.36273   9.69160  32.63615
 -6.31263  11.31822  33.20319
 -6.26253  10.73625  33.74108
 -6.21242  11.21932  34.30317
 -6.16232  11.75632  34.89216
 -6.11222  11.71053  35.47886
 -6.06212  12.07489  36.08382
 -6.01202   9.49872  36.55971
 -5.96192   8.74765  36.99796
 -5.91182   9.35855  37.46683
 -5.86172  10.02284  37.96898
 -5.81162  10.48210  38.49413
 -5.76152  10.58640  39.02451
 -5.71142  10.65522  39.55834
 -5.66132  10.68401  40.09361
 -5.61122  10.64222  40.62679
 -5.56112   9.35786  41.09562
 -5.51102   9.19196  41.55614
 -5.46092   9.93592  42.05393
 -5.41082   9.93128  42.55149
 -5.36072   9.67024  43.03597
 -5.31062   9.58232  43.51605
 -5.26052   9.73812  44.00393
 -5.21042   9.09812  44.45975
 -5.16032   9.92253  44.95687
 -5.11022  11.77283  45.54669
 -5.06012  13.10640  46.20332
 -5.01002  14.74624  46.94211
 -4.95992  13.47725  47.61732
 -4.90982  13.56109  48.29674
 -4.85972  13.94064  48.99517
 -4.80962  14.08451  49.70080
 -4.75952  15.27036  50.46585
 -4.70942  12.79261  51.10676
 -4.65932  11.89770  51.70284
 -4.60922  13.20789  52.36456
 -4.55912  14.73385  53.10273
 -4.50902  13.41401  53.77477
 -4.45892  13.70495  54.46139
 -4.40882  14.20957  55.17329
 -4.35872  12.65692  55.80741
 -4.30862  12.43229  56.43027
 -4.25852  14.49641  57.15654
 -4.20842  17.06997  58.01175
 -4.15832  17.81296  58.90418
 -4.10822  17.07174  59.75948
 -4.05812  16.30199  60.57621
 -4.00802  14.60317  61.30784
 -3.95792  17.82233  62.20074
 -3.90782  14.37914  62.92114
 -3.85772   9.26292  63.38521
 -3.80762   8.85502  63.82885
 -3.75752  11.26685  64.39332
 -3.70741  11.71850  64.98042
 -3.65731  12.31851  65.59758
 -3.60721   8.22881  66.00984
 -3.55711   7.13124  66.36712
 -3.50701  11.00903  66.91868
 -3.45691   7.58125  67.29850
 -3.40681   7.12700  67.65556
 -3.35671   9.07455  68.11020
 -3.30661  11.97318  68.71006
 -3.25651  12.01870  69.31220
 -3.20641  10.25964  69.82621
 -3.15631   8.76882  70.26553
 -3.10621  10.31548  70.78233
 -3.05611   9.14193  71.24035
 -3.00601   6.94769  71.58843
 -2.95591   6.06481  71.89228
 -2.90581   6.26828  72.20632
 -2.85571   6.41463  72.52769
 -2.80561   7.72690  72.91481
 -2.75551   7.99957  73.31559
 -2.70541   7.23349  73.67799
 -2.65531   5.25030  73.94103
 -2.60521   3.91495  74.13717
 -2.55511   3.32485  74.30375
 -2.50501   3.21736  74.46494
 -2.45491   3.58918  74.64476
 -2.40481   4.14876  74.85261
 -2.35471   4.59536  75.08284
 -2.30461   3.90374  75.27842
 -2.25451   3.97963  75.47780
 -2.20441   4.86039  75.72130
 -2.15431   3.72586  75.90797
 -2.10421   3.23995  76.07029
 -2.05411   2.68994  76.20506
 -2.00401   2.84022  76.34735
 -1.95391   4.07454  76.55149
 -1.90381   5.99394  76.85179
 -1.85371   6.63254  77.18408
 -1.80361   6.01534  77.48545
 -1.75351   5.84512  77.77829
 -1.70341   6.35939  78.09690
 -1.65331   6.77236  78.43619
 -1.60321   6.07530  78.74057
 -1.55311   5.13097  78.99763
 -1.50301   4.11304  79.20369
 -1.45291   3.40323  79.37420
 -1.40281   3.15078  79.53205
 -1.35271   3.12711  79.68872
 -1.30261   3.32976  79.85554
 -1.25251   4.18622  80.06527
 -1.20240   4.38259  80.28484
 -1.15230   4.10465  80.49048
 -1.10220   4.41256  80.71155
 -1.05210   5.29014  80.97659
 -1.00200   6.23157  81.28879
 -0.95190   6.41452  81.61016
 -0.90180   5.84942  81.90322
 -0.85170   4.39858  82.12359
 -0.80160   4.17007  82.33251
 -0.75150   4.74333  82.57015
 -0.70140   5.73007  82.85723
 -0.65130   7.12529  83.21421
 -0.60120   7.23170  83.57652
 -0.55110   6.89815  83.92212
 -0.50100   6.65724  84.25565
 -0.45090   7.92649  84.65277
 -0.40080   7.21923  85.01445
 -0.35070   6.69781  85.35001
 -0.30060   6.77357  85.68937
 -0.25050   6.80456  86.03028
 -0.20040   6.93406  86.37768
 -0.15030   7.01220  86.72899
 -0.10020   7.62198  87.11085
 -0.05010   9.62502  87.59307
 -0.00000   8.08193  87.99797
  0.05010   9.31990  88.46490
  0.10020  11.18983  89.02552
  0.15030  11.28724  89.59101
  0.20040   9.89541  90.08677
  0.25050  10.33837  90.60472
  0.30060  10.72357  91.14198
  0.35070   9.48020  91.61694
  0.40080  10.15008  92.12546
  0.45090  10.49932  92.65148
  0.50100  10.82197  93.19366
  0.55110  11.65826  93.77774
  0.60120  11.98033  94.37796
  0.65130  14.80306  95.11959
  0.70140  16.46479  95.94448
  0.75150  12.73556  96.58254
  0.80160  15.08050  97.33807
  0.85170  17.74632  98.22717
  0.90180  18.55778  99.15692
  0.95190  19.38601 100.12816
  1.00200  16.59310 100.95948
  1.05210  18.16954 101.86978
  1.10220  16.49978 102.69642
  1.15230  18.27917 103.61221
  1.20240  18.59199 104.54367
  1.25251  18.20239 105.45561
  1.30261  17.64859 106.33981
  1.35271  16.79090 107.18104
  1.40281  15.90723 107.97799
  1.45291  13.45051 108.65187
  1.50301  12.80452 109.29338
  1.55311  11.73714 109.88141
  1.60321  11.26815 110.44595
  1.65331  11.54741 111.02447
  1.70341  12.65160 111.65832
  1.75351  14.47209 112.38338
  1.80361  10.64041 112.91646
  1.85371  10.47886 113.44146
  1.90381  12.76826 114.08115
  1.95391  12.20592 114.69267
  2.00401  11.36151 115.26188
  2.05411   9.62176 115.74393
  2.10421  10.28969 116.25945
  2.15431  10.45757 116.78338
  2.20441  10.72751 117.32083
  2.25451  11.11567 117.87772
  2.30461  10.53193 118.40537
  2.35471   9.01120 118.85684
  2.40481   6.92948 119.20401
  2.45491   6.09654 119.50944
  2.50501   5.61766 119.79089
  2.55511   5.00160 120.04147
  2.60521   6.17491 120.35083
  2.65531   7.09448 120.70627
  2.70541   6.30931 121.02237
  2.75551   5.10401 121.27808
  2.80561   4.60086 121.50858
  2.85571   4.62501 121.74030
  2.90581   4.32647 121.95705
  2.95591   5.34501 122.22484
  3.00601   6.66284 122.55865
  3.05611   7.02773 122.91074
  3.10621   6.65692 123.24425
  3.15631   7.93522 123.64181
  3.20641   9.06699 124.09607
  3.25651   9.29790 124.56189
  3.30661   8.57789 124.99165
  3.35671   7.51434 125.36812
  3.40681   6.71865 125.70472
  3.45691   7.03440 126.05715
  3.50701   8.63600 126.48981
  3.55711   7.43547 126.86233
  3.60721   6.41436 127.18369
  3.65731   6.63875 127.51630
  3.70741   7.62992 127.89856
  3.75752   9.17581 128.35827
  3.80762   7.50413 128.73423
  3.85772   6.91555 129.08070
  3.90782   7.05686 129.43425
  3.95792   6.23266 129.74650
  4.00802   5.89667 130.04193
  4.05812   5.83632 130.33433
  4.10822   6.55625 130.66280
  4.15832   6.10238 130.96853
  4.20842   5.66269 131.25223
  4.25852   5.40325 131.52293
  4.30862   6.48376 131.84777
  4.35872   8.10009 132.25359
  4.40882   8.51813 132.68035
  4.45892   8.69126 133.11578
  4.50902   7.98833 133.51600
  4.55912   7.38459 133.88597
  4.60922   7.05703 134.23953
  4.65932   7.43678 134.61211
  4.70942   8.65121 135.04554
  4.75952   7.83363 135.43800
  4.80962   6.49941 135.76363
  4.85972   6.12439 136.07046
  4.90982   5.94311 136.36821
  4.95992   5.48154 136.64284
  5.01002   5.30795 136.90877
  5.06012   5.89046 137.20388
  5.11022   5.85591 137.49726
  5.16032   5.98595 137.79716
  5.21042   6.02089 138.09881
  5.26052   5.69235 138.38399
  5.31062   6.04879 138.68704
  5.36072   6.06448 138.99087
  5.41082   6.16919 139.29995
  5.46092   6.21947 139.61155
  5.51102   6.38374 139.93137
  5.56112   6.12632 140.23830
  5.61122   6.07958 140.54289
  5.66132   6.15869 140.85144
  5.71142   6.21990 141.16306
  5.76152   6.50764 141.48909
  5.81162   6.86800 141.83318
  5.86172   6.94941 142.18135
  5.91182   7.23840 142.54399
  5.96192   7.23663 142.90655
  6.01202   7.40288 143.27744
  6.06212   7.77028 143.66673
  6.11222   8.59026 144.09710
  6.16232   8.59816 144.52787
  6.21242   9.30776 144.99419
  6.26253  10.24590 145.50751
  6.31263  10.62817 146.03999
  6.36273  10.09580 146.54579
  6.41283   9.19276 147.00635
  6.46293   9.96293 147.50549
  6.51303  10.46960 148.03002
  6.56313   9.96728 148.52939
  6.61323   9.45039 149.00285
  6.66333   8.23092 149.41522
  6.71343   7.71007 149.80150
  6.76353   7.50853 150.17768
  6.81363   7.87015 150.57197
  6.86373   8.78443 151.01208
  6.91383   7.82691 151.40421
  6.96393   6.73917 151.74184
  7.01403   7.38974 152.11207
  7.06413   8.36174 152.53099
  7.11423   7.93696 152.92864
  7.16433   7.81995 153.32042
  7.21443   8.46249 153.74439
  7.26453   8.06560 154.14848
  7.31463   8.21514 154.56006
  7.36473   8.04144 154.96293
  7.41483   9.33131 155.43044
  7.46493  10.96947 155.98001
  7.51503  11.64257 156.56330
  7.56513   8.85238 157.00681
  7.61523   7.40615 157.37786
  7.66533   8.11998 157.78467
  7.71543   9.38261 158.25474
  7.76553  11.28743 158.82024
  7.81563  12.43902 159.44344
  7.86573  11.41735 160.01545
  7.91583  10.72018 160.55254
  7.96593   9.44555 161.02576
  8.01603   8.86611 161.46995
  8.06613   9.26336 161.93405
  8.11623   9.33740 162.40186
  8.16633  10.00745 162.90323
  8.21643   9.89542 163.39899
  8.26653  10.04589 163.90230
  8.31663  10.43050 164.42487
  8.36673  10.81646 164.96677
  8.41683  10.76742 165.50622
  8.46693  10.09131 166.01180
  8.51703   9.26293 166.47587
  8.56713   9.00208 166.92688
  8.61723   8.89935 167.37274
  8.66733   8.97946 167.82261
  8.71743   9.01149 168.27409
  8.76754   9.18931 168.73448
  8.81764   9.19553 169.19517
  8.86774   9.27466 169.65984
  8.91784   8.95833 170.10865
  8.96794   9.33315 170.57624
  9.01804   9.36359 171.04536
      9.01803607     -16.03206413   501       8.27121949       1.00000000; Z= 42; 5s 4p_y 4p_z 4p_x 4d_xy 4d_yz 4d_z^2 4d_xz 4d_x^2-y^2 
-16.03206   0.00000   0.00000   0.00000   0.00000   0.00000   0.00000   0.00000   0.00000   0.00000
-15.98196   0.00000   0.00000   0.00000   0.00000   0.00000   0.00000   0.00000   0.00000   0.00000
-15.93186   0.00000   0.00000   0.00000   0.00000   0.00000   0.00000   0.00000   0.00000   0.00000
-15.88176   0.00000   0.00000   0.00000   0.00000   0.00000   0.00000   0.00000   0.00000   0.00000
-15.83166   0.00000   0.00000   0.00000   0.00000   0.00000   0.00000   0.00000   0.00000   0.00000
-15.78156   0.00000   0.00000   0.00000   0.00000   0.00000   0.00000   0.00000   0.00000   0.00000
-15.73146   0.00000   0.00000   0.00000   0.00000   0.00000   0.00000   0.00000   0.00000   0.00000
-15.68136   0.00000   0.00000   0.00000   0.00000   0.00000   0.00000   0.00000   0.00000   0.00000
-15.63126   0.00000   0.00000   0.00000   0.00000   0.00000   0.00000   0.00000   0.00000   0.00000
-15.58116   0.00000   0.00000   0.00000   0.00000   0.00000   0.00000   0.00000   0.00000   0.00000
-15.53106   0.00000   0.00000   0.00000   0.00000   0.00000   0.00000   0.00000   0.00000   0.00000
-15.48096   0.00000   0.00000   0.00000   0.00000   0.00000   0.00000   0.00000   0.00000   0.00000
-15.43086   0.00000   0.00000   0.00000   0.00000   0.00000   0.00000   0.00000   0.00000   0.00000
-15.38076   0.00000   0.00000   0.00000   0.00000   0.00000   0.00000   0.00000   0.00000   0.00000
-15.33066   0.00000   0.00000   0.00000   0.00000   0.00000   0.00000   0.00000   0.00000   0.00000
-15.28056   0.00000   0.00000   0.00000   0.00000   0.00000   0.00000   0.00000   0.00000   0.00000
-15.23046   0.00000   0.00000   0.00000   0.00000   0.00000   0.00000   0.00000   0.00000   0.00000
-15.18036   0.00000   0.00000   0.00000   0.00000   0.00000   0.00000   0.00000   0.00000   0.00000
-15.13026   0.00000   0.00000   0.00000   0.00000   0.00000   0.00000   0.00000   0.00000   0.00000
-15.08016   0.00000   0.00000   0.00000   0.00000   0.00000   0.00000   0.00000   0.00000   0.00000
-15.03006   0.00000   0.00000   0.00000   0.00000   0.00000   0.00000   0.00000   0.00000   0.00000
-14.97996   0.00000   0.00000   0.00000   0.00000   0.00000   0.00000   0.00000   0.00000   0.00000
-14.92986   0.00000   0.00000   0.00000   0.00000   0.00000   0.00000   0.00000   0.00000   0.00000
-14.87976   0.00000   0.00000   0.00000   0.00000   0.00000   0.00000   0.00000   0.00000   0.00000
-14.82966   0.00000   0.00000   0.00000   0.00000   0.00000   0.00000   0.00000   0.00000   0.00000
-14.77956   0.00000   0.00000   0.00000   0.00000   0.00000   0.00000   0.00000   0.00000   0.00000
-14.72946   0.00000   0.00000   0.00000   0.00000   0.00000   0.00000   0.00000   0.00000   0.00000
-14.67936   0.00000   0.00000   0.00000   0.00000   0.00000   0.00000   0.00000   0.00000   0.00000
-14.62926   0.00000   0.00000   0.00000   0.00000   0.00000   0.00000   0.00000   0.00000   0.00000
-14.57916   0.00000   0.00000   0.00000   0.00000   0.00000   0.00000   0.00000   0.00000   0.00000
-14.52906   0.00000   0.00000   0.00000   0.00000   0.00000   0.00000   0.00000   0.00000   0.00000
-14.47896   0.00000   0.00000   0.00000   0.00000   0.00000   0.00000   0.00000   0.00000   0.00000
-14.42886   0.00000   0.00000   0.00000   0.00000   0.00000   0.00000   0.00000   0.00000   0.00000
-14.37876   0.00000   0.00000  -0.00000   0.00000   0.00000   0.00000   0.00000   0.00000   0.00000
-14.32866   0.00147   0.00000  -0.00000   0.00000   0.00001   0.00000   0.00017   0.00000   0.00000
-14.27856   0.00530   0.00001  -0.00000   0.00000   0.00003   0.00000   0.00062   0.00000   0.00001
-14.22846   0.00667   0.00001  -0.00000   0.00000   0.00003   0.00000   0.00078   0.00000   0.00001
-14.17836   0.00889   0.00001  -0.00001   0.00000   0.00005   0.00001   0.00104   0.00001   0.00001
-14.12826   0.01033   0.00001  -0.00001   0.00000   0.00006   0.00001   0.00121   0.00002   0.00002
-14.07816   0.01153   0.00001  -0.00001   0.00001   0.00007   0.00002   0.00134   0.00003   0.00003
-14.02806   0.01304   0.00001  -0.00002   0.00001   0.00008   0.00003   0.00152   0.00004   0.00004
-13.97796   0.01462   0.00001  -0.00003   0.00001   0.00010   0.00004   0.00169   0.00005   0.00005
-13.92786   0.01617   0.00000  -0.00004   0.00001   0.00011   0.00005   0.00187   0.00007   0.00007
-13.87776   0.01750   0.00000  -0.00005   0.00001   0.00013   0.00007   0.00202   0.00010   0.00009
-13.82766   0.01885  -0.00000  -0.00005   0.00001   0.00015   0.00009   0.00218   0.00012   0.00012
-13.77756   0.02031  -0.00000  -0.00006   0.00002   0.00018   0.00011   0.00235   0.00015   0.00014
-13.72745   0.02193  -0.00000  -0.00008   0.00002   0.00021   0.00014   0.00254   0.00020   0.00017
-13.67735   0.02388  -0.00000  -0.00009   0.00002   0.00024   0.00017   0.00274   0.00024   0.00021
-13.62725   0.02962   0.00000  -0.00010   0.00003   0.00028   0.00021   0.00298   0.00030   0.00025
-13.57715   0.02917   0.00000  -0.00010   0.00003   0.00033   0.00026   0.00328   0.00036   0.00031
-13.52705   0.03015   0.00001  -0.00011   0.00004   0.00039   0.00030   0.00364   0.00043   0.00039
-13.47695   0.03092   0.00002  -0.00011   0.00006   0.00051   0.00036   0.00429   0.00052   0.00050
-13.42685   0.03185   0.00002  -0.00010   0.00007   0.00057   0.00041   0.00483   0.00062   0.00063
-13.37675   0.03121   0.00003  -0.00009   0.00008   0.00057   0.00047   0.00477   0.00071   0.00067
-13.32665   0.03187   0.00005  -0.00008   0.00010   0.00064   0.00052   0.00521   0.00080   0.00075
-13.27655   0.03037   0.00006  -0.00010   0.00011   0.00057   0.00060   0.00486   0.00095   0.00074
-13.22645   0.02985   0.00005  -0.00022   0.00010   0.00053   0.00071   0.00413   0.00111   0.00062
-13.17635   0.02845   0.00005  -0.00027   0.00009   0.00049   0.00083   0.00370   0.00129   0.00058
-13.12625   0.02705   0.00003  -0.00035   0.00007   0.00045   0.00095   0.00319   0.00147   0.00052
-13.07615   0.02544   0.00003  -0.00041   0.00006   0.00040   0.00109   0.00276   0.00166   0.00048
-13.02605   0.02381   0.00002  -0.00049   0.00005   0.00036   0.00123   0.00231   0.00187   0.00044
-12.97595   0.02296   0.00001  -0.00058   0.00005   0.00033   0.00140   0.00202   0.00213   0.00043
-12.92585   0.02525   0.00003  -0.00064   0.00011   0.00041   0.00161   0.00280   0.00242   0.00055
-12.87575   0.02989   0.00005  -0.00070   0.00025   0.00060   0.00190   0.00420   0.00285   0.00083
-12.82565   0.03149   0.00009  -0.00076   0.00034   0.00070   0.00214   0.00507   0.00315   0.00105
-12.77555   0.03264   0.00011  -0.00083   0.00039   0.00079   0.00244   0.00575   0.00352   0.00124
-12.72545   0.03163   0.00010  -0.00097   0.00031   0.00078   0.00295   0.00527   0.00436   0.00125
-12.67535   0.03116   0.00011  -0.00113   0.00029   0.00080   0.00357   0.00510   0.00506   0.00123
-12.62525   0.03469   0.00011  -0.00143   0.00027   0.00088   0.00471   0.00529   0.00629   0.00133
-12.57515   0.03640   0.00008  -0.00161   0.00022   0.00092   0.00564   0.00541   0.00711   0.00142
-12.52505   0.03298   0.00005  -0.00166   0.00018   0.00089   0.00549   0.00520   0.00700   0.00143
-12.47495   0.03237   0.00001  -0.00204   0.00013   0.00090   0.00647   0.00515   0.00785   0.00138
-12.42485   0.01892   0.00003  -0.00114   0.00010   0.00061   0.00349   0.00364   0.00435   0.00101
-12.37475   0.02062  -0.00000  -0.00127   0.00007   0.00091   0.00383   0.00375   0.00583   0.00110
-12.32465   0.02247  -0.00004  -0.00147   0.00005   0.00116   0.00490   0.00405   0.00794   0.00131
-12.27455   0.03055  -0.00014  -0.00200  -0.00003   0.00177   0.00849   0.00505   0.01544   0.00191
-12.22445   0.03216  -0.00018  -0.00231  -0.00005   0.00223   0.01133   0.00537   0.02137   0.00218
-12.17435   0.03186  -0.00016  -0.00269  -0.00003   0.00258   0.01246   0.00590   0.02468   0.00239
-12.12425   0.03783  -0.00017  -0.00384  -0.00006   0.00341   0.01653   0.00742   0.03316   0.00303
-12.07415   0.03247  -0.00014  -0.00382  -0.00013   0.00309   0.01734   0.00695   0.03424   0.00296
-12.02405   0.02853  -0.00017  -0.00286  -0.00019   0.00286   0.01727   0.00621   0.03357   0.00281
-11.97395   0.03185  -0.00019  -0.00381  -0.00035   0.00388   0.02380   0.00812   0.04787   0.00388
-11.92385   0.02679  -0.00020  -0.00372  -0.00026   0.00300   0.02560   0.00609   0.05007   0.00305
-11.87375   0.02635  -0.00022  -0.00372  -0.00023   0.00294   0.02785   0.00563   0.04638   0.00282
-11.82365   0.02466  -0.00022  -0.00391  -0.00022   0.00309   0.03202   0.00581   0.04865   0.00303
-11.77355   0.02266  -0.00022  -0.00405  -0.00020   0.00323   0.03597   0.00599   0.05368   0.00325
-11.72345   0.02208  -0.00022  -0.00378  -0.00016   0.00357   0.03732   0.00648   0.04833   0.00355
-11.67335   0.02232  -0.00023  -0.00434  -0.00013   0.00410   0.04579   0.00729   0.05004   0.00405
-11.62325   0.02375  -0.00022  -0.00526  -0.00010   0.00498   0.05888   0.00889   0.06132   0.00494
-11.57315   0.02279  -0.00023  -0.00603  -0.00009   0.00500   0.06638   0.00876   0.07416   0.00509
-11.52305   0.02086  -0.00031  -0.00576  -0.00008   0.00514   0.06746   0.00873   0.08479   0.00534
-11.47295   0.02057  -0.00042  -0.00529  -0.00008   0.00586   0.08453   0.00975   0.10758   0.00623
-11.42285   0.02038  -0.00058  -0.00491  -0.00028   0.00577   0.10140   0.01039   0.12505   0.00710
-11.37275   0.01633  -0.00068  -0.00358  -0.00036   0.00447   0.10012   0.00809   0.11759   0.00583
-11.32265   0.01364  -0.00075  -0.00302  -0.00030   0.00425   0.09414   0.00702   0.09595   0.00529
-11.27255   0.01299  -0.00081  -0.00274  -0.00028   0.00518   0.09607   0.00791   0.08956   0.00551
-11.22244   0.01291  -0.00086  -0.00248  -0.00028   0.00621   0.09110   0.00916   0.08825   0.00597
-11.17234   0.01217  -0.00089  -0.00226  -0.00030   0.00638   0.08225   0.00928   0.09627   0.00630
-11.12224   0.01130  -0.00092  -0.00203  -0.00033   0.00646   0.07493   0.00911   0.10410   0.00666
-11.07214   0.01021  -0.00087  -0.00170  -0.00032   0.00637   0.06960   0.00879   0.10389   0.00686
-11.02204   0.00908  -0.00083  -0.00117  -0.00033   0.00623   0.06306   0.00865   0.07031   0.00729
-10.97194   0.00764  -0.00077  -0.00083  -0.00038   0.00592   0.05921   0.00798   0.04670   0.00710
-10.92184   0.00624  -0.00067  -0.00058  -0.00036   0.00607   0.05527   0.00737   0.03686   0.00661
-10.87174   0.00460  -0.00045  -0.00047  -0.00025   0.00618   0.05317   0.00645   0.03277   0.00563
-10.82164   0.00355  -0.00017  -0.00050  -0.00010   0.00620   0.05485   0.00559   0.03245   0.00479
-10.77154   0.00278   0.00001  -0.00055   0.00002   0.00629   0.05783   0.00484   0.03464   0.00407
-10.72144   0.00226   0.00015  -0.00060   0.00014   0.00678   0.05993   0.00449   0.03635   0.00381
-10.67134   0.00293   0.00016  -0.00074   0.00029   0.00986   0.07423   0.00751   0.04485   0.00732
-10.62124   0.00370   0.00012  -0.00102   0.00029   0.01114   0.09096   0.00906   0.05928   0.01133
-10.57114   0.00396  -0.00007  -0.00140   0.00010   0.01093   0.11286   0.00911   0.06540   0.01259
-10.52104   0.00403  -0.00030  -0.00146  -0.00012   0.01048   0.12075   0.00833   0.06500   0.01162
-10.47094   0.00463  -0.00059  -0.00144  -0.00030   0.01199   0.10886   0.00850   0.06287   0.01136
-10.42084   0.00563  -0.00062  -0.00148  -0.00031   0.01638   0.09381   0.01001   0.06053   0.01360
-10.37074   0.00636  -0.00064  -0.00162  -0.00037   0.01861   0.07992   0.01101   0.05543   0.01609
-10.32064   0.00641  -0.00069  -0.00167  -0.00052   0.01770   0.06610   0.01082   0.04813   0.01630
-10.27054   0.00591  -0.00069  -0.00134  -0.00067   0.01640   0.05386   0.01019   0.04037   0.01534
-10.22044   0.00491  -0.00080  -0.00068  -0.00072   0.01732   0.04453   0.01097   0.03458   0.01684
-10.17034   0.00376  -0.00109  -0.00050  -0.00096   0.01480   0.03906   0.00865   0.03094   0.01496
-10.12024   0.00227  -0.00084  -0.00041  -0.00076   0.00952   0.03296   0.00524   0.02692   0.00980
-10.07014   0.00167  -0.00076  -0.00033  -0.00070   0.00747   0.02784   0.00373   0.02390   0.00750
-10.02004   0.00139  -0.00073  -0.00026  -0.00066   0.00687   0.02240   0.00312   0.02131   0.00674
 -9.96994   0.00128  -0.00069  -0.00019  -0.00062   0.00733   0.01574   0.00319   0.01693   0.00687
 -9.91984   0.00125  -0.00067  -0.00015  -0.00054   0.00852   0.01301   0.00363   0.01445   0.00762
 -9.86974   0.00133  -0.00075  -0.00012  -0.00046   0.01125   0.01082   0.00464   0.01216   0.00982
 -9.81964   0.00153  -0.00095  -0.00009  -0.00039   0.01567   0.00950   0.00625   0.01022   0.01386
 -9.76954   0.00159  -0.00107  -0.00007  -0.00057   0.01628   0.01166   0.00682   0.00884   0.01510
 -9.71944   0.00201  -0.00169  -0.00011  -0.00162   0.02158   0.02703   0.01010   0.01048   0.02234
 -9.66934   0.00153  -0.00054  -0.00003  -0.00040   0.01230   0.00963   0.00617   0.00461   0.01317
 -9.61924   0.00150  -0.00033  -0.00002  -0.00007   0.01112   0.00353   0.00565   0.00233   0.01144
 -9.56914   0.00217  -0.00043  -0.00004  -0.00018   0.01542   0.00319   0.00803   0.00230   0.01669
 -9.51904   0.00192  -0.00066  -0.00005  -0.00047   0.01884   0.00403   0.00952   0.00318   0.01616
 -9.46894   0.00205  -0.00064  -0.00009  -0.00052   0.02036   0.00569   0.01006   0.00462   0.01752
 -9.41884   0.00218  -0.00059  -0.00012  -0.00053   0.02074   0.00745   0.00988   0.00623   0.01770
 -9.36874   0.00234  -0.00066  -0.00017  -0.00071   0.02257   0.01093   0.01029   0.00949   0.01944
 -9.31864   0.00289  -0.00097  -0.00034  -0.00129   0.02758   0.02322   0.01157   0.02570   0.02571
 -9.26854   0.00278  -0.00143  -0.00055  -0.00209   0.03161   0.05222   0.01102   0.04311   0.03204
 -9.21844   0.00278  -0.00127  -0.00049  -0.00140   0.02940   0.02944   0.01074   0.02458   0.02566
 -9.16834   0.00310  -0.00166  -0.00074  -0.00165   0.03399   0.02618   0.01133   0.02194   0.02881
 -9.11824   0.00379  -0.00246  -0.00121  -0.00245   0.04415   0.03599   0.01299   0.03082   0.03827
 -9.06814   0.00363  -0.00248  -0.00142  -0.00258   0.04591   0.04199   0.01320   0.03755   0.04075
 -9.01804   0.00356  -0.00184  -0.00172  -0.00208   0.03900   0.04938   0.01180   0.04405   0.03579
 -8.96794   0.00340  -0.00162  -0.00184  -0.00184   0.03618   0.05070   0.01052   0.04737   0.03344
 -8.91784   0.00323  -0.00154  -0.00192  -0.00180   0.03559   0.05200   0.00974   0.04954   0.03380
 -8.86774   0.00318  -0.00153  -0.00200  -0.00182   0.03612   0.05487   0.00941   0.05054   0.03531
 -8.81764   0.00305  -0.00151  -0.00206  -0.00174   0.03622   0.05607   0.00903   0.04709   0.03291