  COHP#       atomMU       atomNU     distance     translation      ICOHP (at) eF   for spin  1
      1          Mo2          Mo1      3.12041       0   0   0           -0.49331 
      2          Mo2          Mo1      3.12041       0   0   1           -0.49342 
      3          Mo3          Mo1      3.04077      -1  -1   0           -0.54971 
      4          Mo3          Mo1      3.04077       0   0   0           -0.54928 
      5          Mo5          Mo1      3.04403      -1   0   0           -0.55668 
      6          Mo5          Mo1      3.04403       0   0   0           -0.55676 
      7           V6          Mo1      3.04403      -1  -1   0           -0.39200 
      8           V6          Mo1      3.04403      -1   0   0           -0.39173 
      9           B8          Mo1      2.40848      -1   0   0           -1.62897 
     10           B9          Mo1      2.40848      -1   0   1           -1.62834 
     11          B10          Mo1      2.38646      -1   0   0           -1.73936 
     12          B11          Mo1      2.38646      -1   0   1           -1.73966 
     13          B12          Mo1      2.36908       0   0   0           -1.78616 
     14          B13          Mo1      2.36908       0   0   1           -1.78719 
     15          B14          Mo1      3.89951      -1   0   0           -0.02189 
     16          B14          Mo1      3.84215       0   0   0           -0.00957 
     17          B14          Mo1      3.85849       0   1   0           -0.01119 
     18          B15          Mo1      3.89951      -1   0   1           -0.02192 
     19          B15          Mo1      3.84215       0   0   1           -0.00935 
     20          B15          Mo1      3.85849       0   1   1           -0.01130 
     21          B16          Mo1      3.85849      -1  -1   0           -0.01124 
     22          B16          Mo1      3.84215      -1   0   0           -0.00934 
     23          B16          Mo1      3.89951       0   0   0           -0.02193 
     24          B17          Mo1      3.85849      -1  -1   1           -0.01119 
     25          B17          Mo1      3.84215      -1   0   1           -0.00959 
     26          B17          Mo1      3.89951       0   0   1           -0.02190 
     27          B18          Mo1      2.36908      -1   0   0           -1.78706 
     28          B19          Mo1      2.36908      -1   0   1           -1.78597 
     29          B20          Mo1      2.38646       0   0   0           -1.73985 
     30          B21          Mo1      2.38646       0   0   1           -1.73918 
     31          B22          Mo1      2.40848       0   0   0           -1.62847 
     32          B23          Mo1      2.40848       0   0   1           -1.62874 
     33          Mo4          Mo2      3.04077      -1  -1   0           -0.51953 
     34          Mo4          Mo2      3.04077       0   0   0           -0.51998 
     35           V7          Mo2      3.04403      -1   0   0           -0.35575 
     36           V7          Mo2      3.04403       0   0   0           -0.35562 
     37           B8          Mo2      2.33794      -1   0   0           -1.92301 
     38           B9          Mo2      2.33794      -1   0   0           -1.92273 
     39          B10          Mo2      2.34922      -1   0   0           -1.86874 
     40          B11          Mo2      2.34922      -1   0   0           -1.86866 
     41          B12          Mo2      2.34054       0   0   0           -1.94342 
     42          B13          Mo2      2.34054       0   0   0           -1.94300 
     43          B14          Mo2      3.85634      -1   0   0           -0.02345 
     44          B14          Mo2      3.79833       0   0   0           -0.03610 
     45          B14          Mo2      3.81485       0   1   0           -0.03135 
     46          B15          Mo2      3.85634      -1   0   0           -0.02318 
     47          B15          Mo2      3.79833       0   0   0           -0.03595 
     48          B15          Mo2      3.81485       0   1   0           -0.03116 
     49          B16          Mo2      3.81485      -1  -1   0           -0.03124 
     50          B16          Mo2      3.79833      -1   0   0           -0.03601 
     51          B16          Mo2      3.85634       0   0   0           -0.02319 
     52          B17          Mo2      3.81485      -1  -1   0           -0.03125 
     53          B17          Mo2      3.79833      -1   0   0           -0.03592 
     54          B17          Mo2      3.85634       0   0   0           -0.02342 
     55          B18          Mo2      2.34054      -1   0   0           -1.94279 
     56          B19          Mo2      2.34054      -1   0   0           -1.94320 
     57          B20          Mo2      2.34922       0   0   0           -1.86812 
     58          B21          Mo2      2.34922       0   0   0           -1.86911 
     59          B22          Mo2      2.33794       0   0   0           -1.92232 
     60          B23          Mo2      2.33794       0   0   0           -1.92315 
     61          Mo4          Mo3      3.12041       0   0   0           -0.49344 
     62          Mo4          Mo3      3.12041       0   0   1           -0.49346 
     63          Mo5          Mo3      3.04403       0   0   0           -0.55676 
     64          Mo5          Mo3      3.04403       0   1   0           -0.55719 
     65           V6          Mo3      3.04403      -1   0   0           -0.39213 
     66           V6          Mo3      3.04403       0   0   0           -0.39214 
     67           B8          Mo3      3.85849      -1   0   0           -0.01122 
     68           B8          Mo3      3.84215       0   0   0           -0.00956 
     69           B8          Mo3      3.89951       0   1   0           -0.02189 
     70           B9          Mo3      3.85849      -1   0   1           -0.01134 
     71           B9          Mo3      3.84215       0   0   1           -0.00928 
     72           B9          Mo3      3.89951       0   1   1           -0.02191 
     73          B10          Mo3      2.38646       0   1   0           -1.73858 
     74          B11          Mo3      2.38646       0   1   1           -1.73909 
     75          B12          Mo3      2.36908       0   0   0           -1.78647 
     76          B13          Mo3      2.36908       0   0   1           -1.78733 
     77          B14          Mo3      2.40848       0   1   0           -1.62886 
     78          B15          Mo3      2.40848       0   1   1           -1.62867 
     79          B16          Mo3      2.40848       0   0   0           -1.62863 
     80          B17          Mo3      2.40848       0   0   1           -1.62911 
     81          B18          Mo3      2.36908       0   1   0           -1.78707 
     82          B19          Mo3      2.36908       0   1   1           -1.78618 
     83          B20          Mo3      2.38646       0   0   0           -1.73896 
     84          B21          Mo3      2.38646       0   0   1           -1.73872 
     85          B22          Mo3      3.89951       0   0   0           -0.02192 
     86          B22          Mo3      3.84215       0   1   0           -0.00927 
     87          B22          Mo3      3.85849       1   1   0           -0.01134 
     88          B23          Mo3      3.89951       0   0   1           -0.02186 
     89          B23          Mo3      3.84215       0   1   1           -0.00956 
     90          B23          Mo3      3.85849       1   1   1           -0.01122 
     91           V7          Mo4      3.04403       0   0   0           -0.35505 
     92           V7          Mo4      3.04403       0   1   0           -0.35508 
     93           B8          Mo4      3.81485      -1   0   0           -0.03124 
     94           B8          Mo4      3.79833       0   0   0           -0.03602 
     95           B8          Mo4      3.85634       0   1   0           -0.02340 
     96           B9          Mo4      3.81485      -1   0   0           -0.03117 
     97           B9          Mo4      3.79833       0   0   0           -0.03606 
     98           B9          Mo4      3.85634       0   1   0           -0.02320 
     99          B10          Mo4      2.34922       0   1   0           -1.87030 
    100          B11          Mo4      2.34922       0   1   0           -1.86940 
    101          B12          Mo4      2.34054       0   0   0           -1.94353 
    102          B13          Mo4      2.34054       0   0   0           -1.94294 
    103          B14          Mo4      2.33794       0   1   0           -1.92300 
    104          B15          Mo4      2.33794       0   1   0           -1.92228 
    105          B16          Mo4      2.33794       0   0   0           -1.92248 
    106          B17          Mo4      2.33794       0   0   0           -1.92272 
    107          B18          Mo4      2.34054       0   1   0           -1.94276 
    108          B19          Mo4      2.34054       0   1   0           -1.94345 
    109          B20          Mo4      2.34922       0   0   0           -1.86962 
    110          B21          Mo4      2.34922       0   0   0           -1.86988 
    111          B22          Mo4      3.85634       0   0   0           -0.02313 
    112          B22          Mo4      3.79833       0   1   0           -0.03591 
    113          B22          Mo4      3.81486       1   1   0           -0.03110 
    114          B23          Mo4      3.85634       0   0   0           -0.02345 
    115          B23          Mo4      3.79833       0   1   0           -0.03603 
    116          B23          Mo4      3.81486       1   1   0           -0.03127 
    117           V6          Mo5      3.04077      -1  -1   0           -0.41149 
    118           V6          Mo5      3.04077       0   0   0           -0.41136 
    119           V7          Mo5      3.12041       0   0   0           -0.33809 
    120           V7          Mo5      3.12041       0   0   1           -0.33806 
    121           B8          Mo5      2.39124       0   0   0           -1.69542 
    122           B9          Mo5      2.39124       0   0   1           -1.69666 
    123          B10          Mo5      3.83303      -1   0   0           -0.01002 
    124          B10          Mo5      3.90262       0   0   0           -0.02072 
    125          B10          Mo5      3.83303       0   1   0           -0.01020 
    126          B11          Mo5      3.83303      -1   0   1           -0.01030 
    127          B11          Mo5      3.90262       0   0   1           -0.02059 
    128          B11          Mo5      3.83303       0   1   1           -0.01038 
    129          B12          Mo5      2.35390       0   0   0           -1.84969 
    130          B13          Mo5      2.35390       0   0   1           -1.84995 
    131          B14          Mo5      2.39124       0   0   0           -1.69458 
    132          B15          Mo5      2.39124       0   0   1           -1.69620 
    133          B16          Mo5      2.39124       0   0   0           -1.69626 
    134          B17          Mo5      2.39124       0   0   1           -1.69490 
    135          B18          Mo5      2.35390       0   0   0           -1.84979 
    136          B19          Mo5      2.35390       0   0   1           -1.84935 
    137          B20          Mo5      3.83303       0  -1   0           -0.01029 
    138          B20          Mo5      3.90262       0   0   0           -0.02058 
    139          B20          Mo5      3.83303       1   0   0           -0.01033 
    140          B21          Mo5      3.83303       0  -1   1           -0.01015 
    141          B21          Mo5      3.90262       0   0   1           -0.02071 
    142          B21          Mo5      3.83303       1   0   1           -0.01008 
    143          B22          Mo5      2.39124       0   0   0           -1.69655 
    144          B23          Mo5      2.39124       0   0   1           -1.69519 
    145           B8           V6      2.35773       0   0   0           -1.16589 
    146           B9           V6      2.35773       0   0   1           -1.16631 
    147          B10           V6      2.33363       0   1   0           -1.25602 
    148          B11           V6      2.33363       0   1   1           -1.25480 
    149          B12           V6      3.84540       0   0   0           -0.01367 
    150          B12           V6      3.86913       1   0   0           -0.01371 
    151          B12           V6      3.84540       1   1   0           -0.01366 
    152          B13           V6      3.84540       0   0   1           -0.01375 
    153          B13           V6      3.86913       1   0   1           -0.01348 
    154          B13           V6      3.84540       1   1   1           -0.01374 
    155          B14           V6      2.35773       1   1   0           -1.16579 
    156          B15           V6      2.35773       1   1   1           -1.16629 
    157          B16           V6      2.35773       0   0   0           -1.16634 
    158          B17           V6      2.35773       0   0   1           -1.16588 
    159          B18           V6      3.84540       0   0   0           -0.01371 
    160          B18           V6      3.86913       0   1   0           -0.01346 
    161          B18           V6      3.84540       1   1   0           -0.01371 
    162          B19           V6      3.84540       0   0   1           -0.01363 
    163          B19           V6      3.86913       0   1   1           -0.01369 
    164          B19           V6      3.84540       1   1   1           -0.01362 
    165          B20           V6      2.33363       1   0   0           -1.25489 
    166          B21           V6      2.33363       1   0   1           -1.25613 
    167          B22           V6      2.35773       1   1   0           -1.16627 
    168          B23           V6      2.35773       1   1   1           -1.16583 
    169           B8           V7      2.32018       0   0   0           -1.31954 
    170           B9           V7      2.32018       0   0   0           -1.31941 
    171          B10           V7      3.80996      -1   0   0           -0.02678 
    172          B10           V7      3.87997       0   0   0           -0.01611 
    173          B10           V7      3.80996       0   1   0           -0.02669 
    174          B11           V7      3.80996      -1   0   0           -0.02676 
    175          B11           V7      3.87997       0   0   0           -0.01616 
    176          B11           V7      3.80996       0   1   0           -0.02669 
    177          B12           V7      2.32517       0   0   0           -1.29566 
    178          B13           V7      2.32517       0   0   0           -1.29602 
    179          B14           V7      2.32018       0   0   0           -1.31961 
    180          B15           V7      2.32018       0   0   0           -1.31947 
    181          B16           V7      2.32018       0   0   0           -1.31950 
    182          B17           V7      2.32018       0   0   0           -1.31961 
    183          B18           V7      2.32517       0   0   0           -1.29598 
    184          B19           V7      2.32517       0   0   0           -1.29562 
    185          B20           V7      3.80996       0  -1   0           -0.02668 
    186          B20           V7      3.87997       0   0   0           -0.01616 
    187          B20           V7      3.80996       1   0   0           -0.02676 
    188          B21           V7      3.80996       0  -1   0           -0.02669 
    189          B21           V7      3.87997       0   0   0           -0.01610 
    190          B21           V7      3.80996       1   0   0           -0.02677 
    191          B22           V7      2.32018       0   0   0           -1.31944 
    192          B23           V7      2.32018       0   0   0           -1.31958 
    193           B9           B8      3.01311       0   0   0           -0.22004 
    194           B9           B8      3.22771       0   0   1           -0.10739 
    195          B10           B8      3.12486       0   0   0           -0.05035 
    196          B10           B8      2.96349       0   1   0           -0.17327 
    197          B12           B8      3.01916       0   0   0           -0.06922 
    198          B12           B8      3.06989       1   0   0           -0.04332 
    199          B14           B8      3.09310       0   0   0           -0.06936 
    200          B14           B8      2.98844       1   1   0           -0.16005 
    201          B16           B8      1.69906       0   0   0           -7.82865 
    202          B17           B8      3.45914       0   0   0           -0.01575 
    203          B17           B8      3.64759       0   0   1           -0.00585 
    204          B18           B8      1.78650       0   0   0           -6.36549 
    205          B19           B8      3.53043       0   0   0           -0.01257 
    206          B19           B8      3.66093       0   0   1           -0.00822 
    207          B20           B8      1.72424       1   0   0           -7.31104 
    208          B21           B8      3.49355       1   0   0           -0.01553 
    209          B21           B8      3.63692       1   0   1           -0.00589 
    210          B22           B8      3.52903       0   0   0            0.00734 
    211          B22           B8      3.57562       1   0   0           -0.00314 
    212          B22           B8      3.43767       1   1   0            0.01998 
    213          B11           B9      3.12486       0   0   0           -0.05040 
    214          B11           B9      2.96349       0   1   0           -0.17338 
    215          B13           B9      3.01916       0   0   0           -0.06913 
    216          B13           B9      3.06989       1   0   0           -0.04363 
    217          B15           B9      3.09310       0   0   0           -0.06923 
    218          B15           B9      2.98844       1   1   0           -0.15981 
    219          B16           B9      3.64759       0   0  -1           -0.00579 
    220          B16           B9      3.45914       0   0   0           -0.01577 
    221          B17           B9      1.69906       0   0   0           -7.82870 
    222          B18           B9      3.66093       0   0  -1           -0.00821 
    223          B18           B9      3.53043       0   0   0           -0.01253 
    224          B19           B9      1.78650       0   0   0           -6.36550 
    225          B20           B9      3.63692       1   0  -1           -0.00593 
    226          B20           B9      3.49355       1   0   0           -0.01550 
    227          B21           B9      1.72424       1   0   0           -7.31013 
    228          B23           B9      3.52903       0   0   0            0.00734 
    229          B23           B9      3.57562       1   0   0           -0.00313 
    230          B23           B9      3.43767       1   1   0            0.01998 
    231          B11          B10      3.06390       0   0   0           -0.16951 
    232          B11          B10      3.17692       0   0   1           -0.12540 
    233          B12          B10      3.04096       0  -1   0           -0.05038 
    234          B12          B10      3.04096       1   0   0           -0.05039 
    235          B14          B10      3.12486       0   0   0           -0.05034 
    236          B14          B10      2.96349       1   0   0           -0.17331 
    237          B16          B10      1.72424       0  -1   0           -7.31004 
    238          B17          B10      3.49355       0  -1   0           -0.01553 
    239          B17          B10      3.63692       0  -1   1           -0.00590 
    240          B18          B10      1.82149       0   0   0           -5.79400 
    241          B19          B10      3.57022       0   0   0           -0.00959 
    242          B19          B10      3.65623       0   0   1           -0.00816 
    243          B20          B10      3.56201       0  -1   0           -0.00083 
    244          B20          B10      3.41913       1  -1   0            0.02122 
    245          B20          B10      3.56201       1   0   0           -0.00082 
    246          B22          B10      1.72424       1   0   0           -7.31028 
    247          B23          B10      3.49355       1   0   0           -0.01553 
    248          B23          B10      3.63692       1   0   1           -0.00589 
    249          B13          B11      3.04096       0  -1   0           -0.05015 
    250          B13          B11      3.04096       1   0   0           -0.05015 
    251          B15          B11      3.12486       0   0   0           -0.05041 
    252          B15          B11      2.96349       1   0   0           -0.17341 
    253          B16          B11      3.63692       0  -1  -1           -0.00592 
    254          B16          B11      3.49355       0  -1   0           -0.01551 
    255          B17          B11      1.72424       0  -1   0           -7.31107 
    256          B18          B11      3.65623       0   0  -1           -0.00823 
    257          B18          B11      3.57022       0   0   0           -0.00955 
    258          B19          B11      1.82149       0   0   0           -5.79405 
    259          B21          B11      3.56201       0  -1   0           -0.00082 
    260          B21          B11      3.41913       1  -1   0            0.02122 
    261          B21          B11      3.56201       1   0   0           -0.00083 
    262          B22          B11      3.63692       1   0  -1           -0.00592 
    263          B22          B11      3.49355       1   0   0           -0.01549 
    264          B23          B11      1.72424       1   0   0           -7.31094 
    265          B13          B12      3.07733       0   0   0           -0.13874 
    266          B13          B12      3.16349       0   0   1           -0.10957 
    267          B14          B12      3.01916       0   0   0           -0.06920 
    268          B14          B12      3.06989       0   1   0           -0.04333 
    269          B16          B12      1.78650       0   0   0           -6.36549 
    270          B17          B12      3.53043       0   0   0           -0.01258 
    271          B17          B12      3.66093       0   0   1           -0.00823 
    272          B18          B12      3.52739      -1   0   0           -0.00799 
    273          B18          B12      3.48650       0   0   0           -0.00114 
    274          B18          B12      3.52739       0   1   0           -0.00797 
    275          B20          B12      1.82149       0   0   0           -5.79394 
    276          B21          B12      3.57022       0   0   0           -0.00959 
    277          B21          B12      3.65622       0   0   1           -0.00815 
    278          B22          B12      1.78650       0   0   0           -6.36525 
    279          B23          B12      3.53043       0   0   0           -0.01258 
    280          B23          B12      3.66093       0   0   1           -0.00821 
    281          B15          B13      3.01916       0   0   0           -0.06909 
    282          B15          B13      3.06989       0   1   0           -0.04365 
    283          B16          B13      3.66093       0   0  -1           -0.00822 
    284          B16          B13      3.53043       0   0   0           -0.01252 
    285          B17          B13      1.78650       0   0   0           -6.36533 
    286          B19          B13      3.52739      -1   0   0           -0.00797 
    287          B19          B13      3.48650       0   0   0           -0.00114 
    288          B19          B13      3.52739       0   1   0           -0.00799 
    289          B20          B13      3.65622       0   0  -1           -0.00822 
    290          B20          B13      3.57022       0   0   0           -0.00955 
    291          B21          B13      1.82149       0   0   0           -5.79387 
    292          B22          B13      3.66093       0   0  -1           -0.00821 
    293          B22          B13      3.53043       0   0   0           -0.01253 
    294          B23          B13      1.78650       0   0   0           -6.36539 
    295          B15          B14      3.01311       0   0   0           -0.22009 
    296          B15          B14      3.22771       0   0   1           -0.10747 
    297          B16          B14      3.43767      -1  -1   0            0.01997 
    298          B16          B14      3.57562       0  -1   0           -0.00314 
    299          B16          B14      3.52904       0   0   0            0.00734 
    300          B18          B14      1.78650       0   0   0           -6.36543 
    301          B19          B14      3.53043       0   0   0           -0.01257 
    302          B19          B14      3.66093       0   0   1           -0.00823 
    303          B20          B14      1.72424       0  -1   0           -7.31090 
    304          B21          B14      3.49355       0  -1   0           -0.01552 
    305          B21          B14      3.63692       0  -1   1           -0.00589 
    306          B22          B14      1.69906       0   0   0           -7.82883 
    307          B23          B14      3.45914       0   0   0           -0.01576 
    308          B23          B14      3.64759       0   0   1           -0.00584 
    309          B17          B15      3.43767      -1  -1   0            0.01996 
    310          B17          B15      3.57562       0  -1   0           -0.00315 
    311          B17          B15      3.52904       0   0   0            0.00734 
    312          B18          B15      3.66093       0   0  -1           -0.00822 
    313          B18          B15      3.53043       0   0   0           -0.01252 
    314          B19          B15      1.78650       0   0   0           -6.36545 
    315          B20          B15      3.63692       0  -1  -1           -0.00592 
    316          B20          B15      3.49355       0  -1   0           -0.01550 
    317          B21          B15      1.72424       0  -1   0           -7.31012 
    318          B22          B15      3.64759       0   0  -1           -0.00580 
    319          B22          B15      3.45914       0   0   0           -0.01577 
    320          B23          B15      1.69906       0   0   0           -7.82867 
    321          B17          B16      3.01311       0   0   0           -0.22012 
    322          B17          B16      3.22771       0   0   1           -0.10745 
    323          B18          B16      3.01916       0   0   0           -0.06906 
    324          B18          B16      3.06989       0   1   0           -0.04362 
    325          B20          B16      3.12486       0   0   0           -0.05041 
    326          B20          B16      2.96350       1   0   0           -0.17336 
    327          B22          B16      3.09310       0   0   0           -0.06924 
    328          B22          B16      2.98844       1   1   0           -0.15977 
    329          B19          B17      3.01916       0   0   0           -0.06918 
    330          B19          B17      3.06989       0   1   0           -0.04332 
    331          B21          B17      3.12486       0   0   0           -0.05033 
    332          B21          B17      2.96350       1   0   0           -0.17326 
    333          B23          B17      3.09310       0   0   0           -0.06936 
    334          B23          B17      2.98844       1   1   0           -0.16002 
    335          B19          B18      3.07733       0   0   0           -0.13875 
    336          B19          B18      3.16349       0   0   1           -0.10962 
    337          B20          B18      3.04096       0  -1   0           -0.05012 
    338          B20          B18      3.04096       1   0   0           -0.05013 
    339          B22          B18      3.01916       0   0   0           -0.06909 
    340          B22          B18      3.06989       1   0   0           -0.04361 
    341          B21          B19      3.04096       0  -1   0           -0.05035 
    342          B21          B19      3.04096       1   0   0           -0.05035 
    343          B23          B19      3.01916       0   0   0           -0.06919 
    344          B23          B19      3.06989       1   0   0           -0.04330 
    345          B21          B20      3.06390       0   0   0           -0.16954 
    346          B21          B20      3.17692       0   0   1           -0.12539 
    347          B22          B20      3.12486       0   0   0           -0.05040 
    348          B22          B20      2.96350       0   1   0           -0.17337 
    349          B23          B21      3.12486       0   0   0           -0.05033 
    350          B23          B21      2.96350       0   1   0           -0.17325 
    351          B23          B22      3.01311       0   0   0           -0.22006 
    352          B23          B22      3.22771       0   0   1           -0.10741 
