   48   48    1    1
  0.2461586E+02  0.8645320E-09  0.6085000E-09  0.2593596E-08  0.5000000E-15
   1.0000000000000000E-004
  CAR 
 Name                                    
    188    149    120

  0.3742002E-15  0.3742002E-15  0.3742002E-15  0.3367003E-02
    1      -14.054826   1.000000
    2      -12.630802   1.000000
    3      -12.576193   1.000000
    4      -12.021920   1.000000
    5      -11.510878   1.000000
    6      -11.256935   1.000000
    7      -11.252419   1.000000
    8      -11.194386   1.000000
    9      -11.044912   1.000000
   10      -10.774137   1.000000
   11      -10.772631   1.000000
   12      -10.318423   1.000000
   13      -10.209838   1.000000
   14      -10.202431   1.000000
   15       -9.799165   1.000000
   16       -9.799033   1.000000
   17       -9.009014   1.000000
   18       -8.913876   1.000000
   19       -8.903671   1.000000
   20       -8.610863   1.000000
   21       -8.597156   1.000000
   22       -8.238146   1.000000
   23       -8.235398   1.000000
   24       -8.121158   1.000000
   25       -8.044698   1.000000
   26       -8.042965   1.000000
   27       -7.385419   1.000000
   28       -7.076953   1.000000
   29       -6.620647   1.000000
   30       -6.609251   1.000000
   31       -6.511506   1.000000
   32       -6.210935   1.000000
   33       -6.084566   1.000000
   34       -5.696149   1.000000
   35       -5.646917   1.000000
   36       -5.586674   1.000000
   37       -5.572783   1.000000
   38       -5.454804   1.000000
   39       -5.290503   1.000000
   40       -5.199817   1.000000
   41       -5.184622   1.000000
   42       -5.132450   1.000000
   43       -4.945349   1.000000
   44       -4.923454   1.000000
   45       -4.873365   1.000000
   46       -4.809263   1.000000
   47       -4.695459   1.000000
   48       -4.643910   1.000000
   49       -4.614461   1.000000
   50       -4.613944   1.000000
   51       -4.479698   1.000000
   52       -4.455642   1.000000
   53       -4.425349   1.000000
   54       -4.246127   1.000000
   55       -4.130568   1.000000
   56       -4.129776   1.000000
   57       -4.072993   1.000000
   58       -4.060892   1.000000
   59       -3.890138   1.000000
   60       -3.685168   1.000000
   61       -3.524468   1.000000
   62       -3.489374   1.000000
   63       -3.480146   1.000000
   64       -3.446278   1.000000
   65       -3.398482   1.000000
   66       -3.335645   1.000000
   67       -3.327994   1.000000
   68       -3.295050   1.000000
   69       -3.194583   1.000000
   70       -3.103628   1.000000
   71       -2.748397   1.000000
   72       -2.732195   1.000000
   73       -2.563485   1.000000
   74       -2.473905   1.000000
   75       -2.392793   1.000000
   76       -2.348579   1.000000
   77       -2.306009   1.000000
   78       -2.224446   1.000000
   79       -2.170133   1.000000
   80       -2.051914   1.000000
   81       -1.822511   1.000000
   82       -1.614901   1.000000
   83       -1.256795   1.000000
   84       -1.226072   1.000000
   85       -1.178146   1.000000
   86       -1.071007   1.000000
   87       -0.995357   1.000000
   88       -0.944201   1.000000
   89       -0.425251   1.000000
   90       -0.415786   1.000000
   91       -0.272900   1.000531
   92       -0.077717   0.965198
   93       -0.022241   0.634170
   94        0.022690   0.266761
   95        0.175892  -0.013656
   96        0.200745  -0.006356
   97        0.213825  -0.003978
   98        0.534932  -0.000000
   99        0.539870  -0.000000
  100        0.573650  -0.000000
  101        0.718574  -0.000000
  102        0.752382  -0.000000
  103        0.757182  -0.000000
  104        0.808545  -0.000000
  105        0.875950  -0.000000
  106        1.203856  -0.000000
  107        1.215381  -0.000000
  108        1.248397  -0.000000
  109        1.284645  -0.000000
  110        1.383965  -0.000000
  111        1.391447  -0.000000
  112        1.415242  -0.000000
  113        1.474471  -0.000000
  114        1.609204  -0.000000
  115        1.612844  -0.000000
  116        1.689859  -0.000000
  117        1.762403  -0.000000
  118        1.951170  -0.000000
  119        3.041332   0.000000
  120        3.764656   0.000000

  0.1111111E+00  0.3729374E-15  0.3860503E-15  0.6734007E-02
    1      -14.027885   1.000000
    2      -12.688307   1.000000
    3      -12.606557   1.000000
    4      -11.966147   1.000000
    5      -11.496701   1.000000
    6      -11.254871   1.000000
    7      -11.242629   1.000000
    8      -11.177594   1.000000
    9      -11.085124   1.000000
   10      -10.769496   1.000000
   11      -10.768378   1.000000
   12      -10.340241   1.000000
   13      -10.207200   1.000000
   14      -10.200535   1.000000
   15       -9.786237   1.000000
   16       -9.785912   1.000000
   17       -8.980488   1.000000
   18       -8.915417   1.000000
   19       -8.904074   1.000000
   20       -8.618048   1.000000
   21       -8.608258   1.000000
   22       -8.295326   1.000000
   23       -8.293008   1.000000
   24       -8.088151   1.000000
   25       -8.074871   1.000000
   26       -8.047676   1.000000
   27       -7.474775   1.000000
   28       -7.070937   1.000000
   29       -6.580816   1.000000
   30       -6.568675   1.000000
   31       -6.441024   1.000000
   32       -6.186739   1.000000
   33       -6.057351   1.000000
   34       -5.695666   1.000000
   35       -5.686960   1.000000
   36       -5.597825   1.000000
   37       -5.490154   1.000000
   38       -5.481894   1.000000
   39       -5.355047   1.000000
   40       -5.193684   1.000000
   41       -5.150628   1.000000
   42       -5.104479   1.000000
   43       -4.917345   1.000000
   44       -4.883780   1.000000
   45       -4.825129   1.000000
   46       -4.807997   1.000000
   47       -4.731628   1.000000
   48       -4.622203   1.000000
   49       -4.606190   1.000000
   50       -4.591364   1.000000
   51       -4.481490   1.000000
   52       -4.447375   1.000000
   53       -4.395300   1.000000
   54       -4.242992   1.000000
   55       -4.158733   1.000000
   56       -4.137866   1.000000
   57       -4.072209   1.000000
   58       -4.054193   1.000000
   59       -3.874530   1.000000
   60       -3.720821   1.000000
   61       -3.536898   1.000000
   62       -3.487595   1.000000
   63       -3.459660   1.000000
   64       -3.437661   1.000000
   65       -3.398436   1.000000
   66       -3.340127   1.000000
   67       -3.324784   1.000000
   68       -3.279594   1.000000
   69       -3.164028   1.000000
   70       -3.160901   1.000000
   71       -2.822444   1.000000
   72       -2.705749   1.000000
   73       -2.559777   1.000000
   74       -2.485902   1.000000
   75       -2.417707   1.000000
   76       -2.408928   1.000000
   77       -2.300053   1.000000
   78       -2.287190   1.000000
   79       -2.196037   1.000000
   80       -2.070568   1.000000
   81       -1.715289   1.000000
   82       -1.658032   1.000000
   83       -1.295156   1.000000
   84       -1.278950   1.000000
   85       -1.136269   1.000000
   86       -1.022070   1.000000
   87       -0.978619   1.000000
   88       -0.841913   1.000000
   89       -0.512954   1.000000
   90       -0.484098   1.000000
   91       -0.299622   1.000134
   92       -0.066145   0.919954
   93        0.036282   0.174199
   94        0.074551   0.008159
   95        0.139178  -0.029672
   96        0.187502  -0.009759
   97        0.195471  -0.007582
   98        0.510097  -0.000000
   99        0.564341  -0.000000
  100        0.573925  -0.000000
  101        0.745909  -0.000000
  102        0.765627  -0.000000
  103        0.783959  -0.000000
  104        0.830286  -0.000000
  105        0.919716  -0.000000
  106        1.200476  -0.000000
  107        1.211562  -0.000000
  108        1.230009  -0.000000
  109        1.321447  -0.000000
  110        1.378827  -0.000000
  111        1.407133  -0.000000
  112        1.455725  -0.000000
  113        1.503324  -0.000000
  114        1.613702  -0.000000
  115        1.641156  -0.000000
  116        1.677790  -0.000000
  117        1.726422  -0.000000
  118        1.902008  -0.000000
  119        1.963555  -0.000000
  120        3.718497   0.000000

  0.2222222E+00  0.3922785E-15  0.3630220E-15  0.6734007E-02
    1      -13.947843   1.000000
    2      -12.920620   1.000000
    3      -12.535196   1.000000
    4      -11.916018   1.000000
    5      -11.457159   1.000000
    6      -11.256308   1.000000
    7      -11.222938   1.000000
    8      -11.154211   1.000000
    9      -11.120643   1.000000
   10      -10.756154   1.000000
   11      -10.755521   1.000000
   12      -10.421060   1.000000
   13      -10.205472   1.000000
   14      -10.200444   1.000000
   15       -9.744806   1.000000
   16       -9.744245   1.000000
   17       -8.925823   1.000000
   18       -8.915709   1.000000
   19       -8.862017   1.000000
   20       -8.650100   1.000000
   21       -8.649769   1.000000
   22       -8.417512   1.000000
   23       -8.416598   1.000000
   24       -8.163200   1.000000
   25       -8.160870   1.000000
   26       -7.890094   1.000000
   27       -7.689433   1.000000
   28       -7.004926   1.000000
   29       -6.528845   1.000000
   30       -6.502055   1.000000
   31       -6.269115   1.000000
   32       -6.227851   1.000000
   33       -5.981534   1.000000
   34       -5.853481   1.000000
   35       -5.629001   1.000000
   36       -5.591451   1.000000
   37       -5.425705   1.000000
   38       -5.355508   1.000000
   39       -5.322825   1.000000
   40       -5.159179   1.000000
   41       -5.121839   1.000000
   42       -5.023997   1.000000
   43       -5.009618   1.000000
   44       -4.898490   1.000000
   45       -4.808229   1.000000
   46       -4.714562   1.000000
   47       -4.701990   1.000000
   48       -4.591870   1.000000
   49       -4.571707   1.000000
   50       -4.546891   1.000000
   51       -4.441603   1.000000
   52       -4.434302   1.000000
   53       -4.330101   1.000000
   54       -4.248010   1.000000
   55       -4.175544   1.000000
   56       -4.169066   1.000000
   57       -4.048664   1.000000
   58       -4.027365   1.000000
   59       -3.856484   1.000000
   60       -3.801370   1.000000
   61       -3.579976   1.000000
   62       -3.518239   1.000000
   63       -3.455838   1.000000
   64       -3.406486   1.000000
   65       -3.402266   1.000000
   66       -3.334396   1.000000
   67       -3.308351   1.000000
   68       -3.258297   1.000000
   69       -3.235622   1.000000
   70       -3.073225   1.000000
   71       -2.961849   1.000000
   72       -2.646137   1.000000
   73       -2.603128   1.000000
   74       -2.579197   1.000000
   75       -2.520847   1.000000
   76       -2.495043   1.000000
   77       -2.418542   1.000000
   78       -2.284272   1.000000
   79       -2.277835   1.000000
   80       -2.027914   1.000000
   81       -1.793327   1.000000
   82       -1.484406   1.000000
   83       -1.387328   1.000000
   84       -1.362761   1.000000
   85       -1.057239   1.000000
   86       -0.920489   1.000000
   87       -0.911111   1.000000
   88       -0.707016   1.000000
   89       -0.619664   1.000000
   90       -0.602393   1.000000
   91       -0.388985   1.000000
   92       -0.123984   1.035103
   93        0.066700   0.030544
   94        0.114915  -0.035427
   95        0.130928  -0.032782
   96        0.181613  -0.011628
   97        0.357235  -0.000002
   98        0.487764  -0.000000
   99        0.526481  -0.000000
  100        0.532246  -0.000000
  101        0.814792  -0.000000
  102        0.824490  -0.000000
  103        0.857702  -0.000000
  104        0.876600  -0.000000
  105        0.999840  -0.000000
  106        1.146135  -0.000000
  107        1.251373  -0.000000
  108        1.251717  -0.000000
  109        1.359564  -0.000000
  110        1.408454  -0.000000
  111        1.420154  -0.000000
  112        1.519409  -0.000000
  113        1.580162  -0.000000
  114        1.599987  -0.000000
  115        1.684984  -0.000000
  116        1.731921  -0.000000
  117        1.806804  -0.000000
  118        1.860799  -0.000000
  119        1.990048  -0.000000
  120        2.375667  -0.000000

  0.3333333E+00  0.3713828E-15  0.3468587E-15  0.6734007E-02
    1      -13.817117   1.000000
    2      -13.177700   1.000000
    3      -12.421261   1.000000
    4      -11.972526   1.000000
    5      -11.401262   1.000000
    6      -11.272700   1.000000
    7      -11.204740   1.000000
    8      -11.181957   1.000000
    9      -11.020577   1.000000
   10      -10.737538   1.000000
   11      -10.737513   1.000000
   12      -10.559001   1.000000
   13      -10.212695   1.000000
   14      -10.209740   1.000000
   15       -9.677665   1.000000
   16       -9.677166   1.000000
   17       -8.920514   1.000000
   18       -8.918009   1.000000
   19       -8.729188   1.000000
   20       -8.725126   1.000000
   21       -8.702679   1.000000
   22       -8.518420   1.000000
   23       -8.509954   1.000000
   24       -8.263716   1.000000
   25       -8.260728   1.000000
   26       -7.952669   1.000000
   27       -7.643908   1.000000
   28       -6.844279   1.000000
   29       -6.606576   1.000000
   30       -6.461189   1.000000
   31       -6.458796   1.000000
   32       -6.069695   1.000000
   33       -5.943663   1.000000
   34       -5.852023   1.000000
   35       -5.510345   1.000000
   36       -5.489881   1.000000
   37       -5.321374   1.000000
   38       -5.302296   1.000000
   39       -5.237647   1.000000
   40       -5.202524   1.000000
   41       -5.095485   1.000000
   42       -5.059033   1.000000
   43       -4.992864   1.000000
   44       -4.862405   1.000000
   45       -4.798974   1.000000
   46       -4.707103   1.000000
   47       -4.673892   1.000000
   48       -4.546650   1.000000
   49       -4.529065   1.000000
   50       -4.505182   1.000000
   51       -4.408172   1.000000
   52       -4.368810   1.000000
   53       -4.283737   1.000000
   54       -4.226433   1.000000
   55       -4.208144   1.000000
   56       -4.106301   1.000000
   57       -4.017251   1.000000
   58       -3.966497   1.000000
   59       -3.954445   1.000000
   60       -3.770542   1.000000
   61       -3.680348   1.000000
   62       -3.535642   1.000000
   63       -3.523429   1.000000
   64       -3.454843   1.000000
   65       -3.388176   1.000000
   66       -3.383015   1.000000
   67       -3.284918   1.000000
   68       -3.257481   1.000000
   69       -3.125148   1.000000
   70       -3.019695   1.000000
   71       -2.958794   1.000000
   72       -2.794557   1.000000
   73       -2.784973   1.000000
   74       -2.617204   1.000000
   75       -2.614199   1.000000
   76       -2.514513   1.000000
   77       -2.490967   1.000000
   78       -2.366030   1.000000
   79       -2.316375   1.000000
   80       -1.962960   1.000000
   81       -1.861350   1.000000
   82       -1.543372   1.000000
   83       -1.472555   1.000000
   84       -1.199254   1.000000
   85       -0.953019   1.000000
   86       -0.895827   1.000000
   87       -0.837231   1.000000
   88       -0.817682   1.000000
   89       -0.758776   1.000000
   90       -0.481105   1.000000
   91       -0.324666   1.000032
   92       -0.290128   1.000222
   93        0.089550  -0.020081
   94        0.104835  -0.033096
   95        0.129901  -0.033110
   96        0.276743  -0.000235
   97        0.353307  -0.000002
   98        0.446221  -0.000000
   99        0.454298  -0.000000
  100        0.847159  -0.000000
  101        0.848030  -0.000000
  102        0.887857  -0.000000
  103        0.897225  -0.000000
  104        0.919984  -0.000000
  105        0.983396  -0.000000
  106        1.077629  -0.000000
  107        1.333539  -0.000000
  108        1.351377  -0.000000
  109        1.389327  -0.000000
  110        1.414042  -0.000000
  111        1.489766  -0.000000
  112        1.523342  -0.000000
  113        1.565170  -0.000000
  114        1.608666  -0.000000
  115        1.769686  -0.000000
  116        1.843237  -0.000000
  117        1.876327  -0.000000
  118        1.889786  -0.000000
  119        1.999029  -0.000000
  120        2.613435  -0.000000

  0.4444444E+00  0.3870091E-15  0.3932070E-15  0.6734007E-02
    1      -13.640024   1.000000
    2      -13.423367   1.000000
    3      -12.274082   1.000000
    4      -12.112078   1.000000
    5      -11.343404   1.000000
    6      -11.299106   1.000000
    7      -11.192367   1.000000
    8      -11.186607   1.000000
    9      -10.884791   1.000000
   10      -10.734933   1.000000
   11      -10.722401   1.000000
   12      -10.711686   1.000000
   13      -10.222742   1.000000
   14      -10.221828   1.000000
   15       -9.616064   1.000000
   16       -9.615830   1.000000
   17       -8.947025   1.000000
   18       -8.946610   1.000000
   19       -8.763527   1.000000
   20       -8.763491   1.000000
   21       -8.594202   1.000000
   22       -8.575616   1.000000
   23       -8.462694   1.000000
   24       -8.335359   1.000000
   25       -8.324245   1.000000
   26       -8.216441   1.000000
   27       -7.328695   1.000000
   28       -6.967214   1.000000
   29       -6.615626   1.000000
   30       -6.462886   1.000000
   31       -6.437599   1.000000
   32       -6.321299   1.000000
   33       -5.686828   1.000000
   34       -5.647283   1.000000
   35       -5.501837   1.000000
   36       -5.424204   1.000000
   37       -5.367513   1.000000
   38       -5.326094   1.000000
   39       -5.242190   1.000000
   40       -5.238916   1.000000
   41       -5.059263   1.000000
   42       -4.985126   1.000000
   43       -4.923726   1.000000
   44       -4.844841   1.000000
   45       -4.759979   1.000000
   46       -4.733969   1.000000
   47       -4.692153   1.000000
   48       -4.584257   1.000000
   49       -4.454795   1.000000
   50       -4.433059   1.000000
   51       -4.375998   1.000000
   52       -4.369373   1.000000
   53       -4.309409   1.000000
   54       -4.173229   1.000000
   55       -4.150182   1.000000
   56       -4.117368   1.000000
   57       -4.013550   1.000000
   58       -3.910283   1.000000
   59       -3.909570   1.000000
   60       -3.815098   1.000000
   61       -3.732248   1.000000
   62       -3.633226   1.000000
   63       -3.516094   1.000000
   64       -3.514749   1.000000
   65       -3.363582   1.000000
   66       -3.363231   1.000000
   67       -3.267511   1.000000
   68       -3.257096   1.000000
   69       -3.067285   1.000000
   70       -3.042666   1.000000
   71       -2.935674   1.000000
   72       -2.918632   1.000000
   73       -2.790755   1.000000
   74       -2.724004   1.000000
   75       -2.702958   1.000000
   76       -2.636130   1.000000
   77       -2.415671   1.000000
   78       -2.390102   1.000000
   79       -2.280983   1.000000
   80       -2.140569   1.000000
   81       -1.723900   1.000000
   82       -1.650474   1.000000
   83       -1.422886   1.000000
   84       -1.206316   1.000000
   85       -1.045782   1.000000
   86       -0.915092   1.000000
   87       -0.811684   1.000000
   88       -0.789472   1.000000
   89       -0.554229   1.000000
   90       -0.506204   1.000000
   91       -0.462158   1.000000
   92       -0.206412   1.007929
   93        0.021888   0.272688
   94        0.132926  -0.032102
   95        0.143603  -0.027758
   96        0.256804  -0.000636
   97        0.375009  -0.000000
   98        0.377750  -0.000000
   99        0.598100  -0.000000
  100        0.772079  -0.000000
  101        0.882592  -0.000000
  102        0.884335  -0.000000
  103        0.926991  -0.000000
  104        0.947917  -0.000000
  105        1.177799  -0.000000
  106        1.224005  -0.000000
  107        1.287347  -0.000000
  108        1.401810  -0.000000
  109        1.421186  -0.000000
  110        1.498384  -0.000000
  111        1.502765  -0.000000
  112        1.546213  -0.000000
  113        1.554945  -0.000000
  114        1.582873  -0.000000
  115        1.607285  -0.000000
  116        1.799423  -0.000000
  117        1.856820  -0.000000
  118        2.003336  -0.000000
  119        2.161539  -0.000000
  120        2.262184  -0.000000

  0.3742002E-15  0.9090909E-01  0.3596334E-15  0.6734007E-02
    1      -14.021783   1.000000
    2      -12.601847   1.000000
    3      -12.580644   1.000000
    4      -11.990316   1.000000
    5      -11.497220   1.000000
    6      -11.436618   1.000000
    7      -11.376385   1.000000
    8      -11.183161   1.000000
    9      -11.049838   1.000000
   10      -10.763241   1.000000
   11      -10.742881   1.000000
   12      -10.305203   1.000000
   13      -10.165899   1.000000
   14      -10.156488   1.000000
   15       -9.788233   1.000000
   16       -9.783109   1.000000
   17       -9.056522   1.000000
   18       -8.997920   1.000000
   19       -8.956439   1.000000
   20       -8.652295   1.000000
   21       -8.618759   1.000000
   22       -8.077326   1.000000
   23       -8.073229   1.000000
   24       -8.009162   1.000000
   25       -7.925882   1.000000
   26       -7.924886   1.000000
   27       -7.440126   1.000000
   28       -7.044832   1.000000
   29       -6.647642   1.000000
   30       -6.592292   1.000000
   31       -6.479032   1.000000
   32       -6.202838   1.000000
   33       -6.108608   1.000000
   34       -5.764656   1.000000
   35       -5.666250   1.000000
   36       -5.526194   1.000000
   37       -5.500994   1.000000
   38       -5.466592   1.000000
   39       -5.325634   1.000000
   40       -5.253497   1.000000
   41       -5.215329   1.000000
   42       -5.131808   1.000000
   43       -5.091916   1.000000
   44       -4.939355   1.000000
   45       -4.862510   1.000000
   46       -4.858709   1.000000
   47       -4.746995   1.000000
   48       -4.641227   1.000000
   49       -4.639013   1.000000
   50       -4.603964   1.000000
   51       -4.509883   1.000000
   52       -4.452634   1.000000
   53       -4.435869   1.000000
   54       -4.317011   1.000000
   55       -4.174421   1.000000
   56       -4.088445   1.000000
   57       -4.059975   1.000000
   58       -3.986200   1.000000
   59       -3.942386   1.000000
   60       -3.663088   1.000000
   61       -3.552630   1.000000
   62       -3.526786   1.000000
   63       -3.495043   1.000000
   64       -3.426083   1.000000
   65       -3.408332   1.000000
   66       -3.322490   1.000000
   67       -3.314875   1.000000
   68       -3.267131   1.000000
   69       -3.173069   1.000000
   70       -3.112598   1.000000
   71       -2.906566   1.000000
   72       -2.724485   1.000000
   73       -2.464940   1.000000
   74       -2.450444   1.000000
   75       -2.412644   1.000000
   76       -2.369989   1.000000
   77       -2.318177   1.000000
   78       -2.234847   1.000000
   79       -2.124806   1.000000
   80       -2.062588   1.000000
   81       -1.838643   1.000000
   82       -1.544718   1.000000
   83       -1.308195   1.000000
   84       -1.264444   1.000000
   85       -1.227587   1.000000
   86       -1.061173   1.000000
   87       -1.042143   1.000000
   88       -1.000935   1.000000
   89       -0.538898   1.000000
   90       -0.380775   1.000001
   91       -0.296850   1.000156
   92       -0.125911   1.035339
   93       -0.125492   1.035299
   94       -0.047900   0.821433
   95        0.147026  -0.026212
   96        0.189965  -0.009043
   97        0.226733  -0.002403
   98        0.412496  -0.000000
   99        0.413303  -0.000000
  100        0.557151  -0.000000
  101        0.808519  -0.000000
  102        0.815891  -0.000000
  103        0.851833  -0.000000
  104        0.936951  -0.000000
  105        1.023152  -0.000000
  106        1.120811  -0.000000
  107        1.152827  -0.000000
  108        1.272261  -0.000000
  109        1.291172  -0.000000
  110        1.373414  -0.000000
  111        1.390754  -0.000000
  112        1.458717  -0.000000
  113        1.505170  -0.000000
  114        1.626590  -0.000000
  115        1.637012  -0.000000
  116        1.690554  -0.000000
  117        1.819598  -0.000000
  118        1.951276  -0.000000
  119        2.105504  -0.000000
  120        3.282483   0.000000

  0.1111111E+00  0.9090909E-01  0.4822234E-15  0.6734007E-02
    1      -13.973087   1.000000
    2      -12.756800   1.000000
    3      -12.558065   1.000000
    4      -11.918857   1.000000
    5      -11.481506   1.000000
    6      -11.469301   1.000000
    7      -11.324112   1.000000
    8      -11.143768   1.000000
    9      -11.117020   1.000000
   10      -10.769081   1.000000
   11      -10.678007   1.000000
   12      -10.348040   1.000000
   13      -10.221315   1.000000
   14      -10.173347   1.000000
   15       -9.746178   1.000000
   16       -9.726577   1.000000
   17       -9.089810   1.000000
   18       -8.966437   1.000000
   19       -8.909580   1.000000
   20       -8.728397   1.000000
   21       -8.636421   1.000000
   22       -8.228017   1.000000
   23       -8.047833   1.000000
   24       -7.985140   1.000000
   25       -7.950249   1.000000
   26       -7.931276   1.000000
   27       -7.576875   1.000000
   28       -7.022737   1.000000
   29       -6.669195   1.000000
   30       -6.477022   1.000000
   31       -6.335658   1.000000
   32       -6.174777   1.000000
   33       -6.102196   1.000000
   34       -5.846861   1.000000
   35       -5.637987   1.000000
   36       -5.525624   1.000000
   37       -5.444433   1.000000
   38       -5.426786   1.000000
   39       -5.398005   1.000000
   40       -5.198935   1.000000
   41       -5.173497   1.000000
   42       -5.144401   1.000000
   43       -5.085774   1.000000
   44       -4.890411   1.000000
   45       -4.857247   1.000000
   46       -4.742668   1.000000
   47       -4.736666   1.000000
   48       -4.612967   1.000000
   49       -4.596117   1.000000
   50       -4.575861   1.000000
   51       -4.519661   1.000000
   52       -4.486016   1.000000
   53       -4.395667   1.000000
   54       -4.318948   1.000000
   55       -4.192310   1.000000
   56       -4.098958   1.000000
   57       -4.056311   1.000000
   58       -3.990063   1.000000
   59       -3.907881   1.000000
   60       -3.708379   1.000000
   61       -3.584449   1.000000
   62       -3.543855   1.000000
   63       -3.497358   1.000000
   64       -3.429104   1.000000
   65       -3.408083   1.000000
   66       -3.300174   1.000000
   67       -3.298920   1.000000
   68       -3.262166   1.000000
   69       -3.162818   1.000000
   70       -3.137368   1.000000
   71       -2.969990   1.000000
   72       -2.683640   1.000000
   73       -2.545412   1.000000
   74       -2.498617   1.000000
   75       -2.480930   1.000000
   76       -2.438482   1.000000
   77       -2.325596   1.000000
   78       -2.301421   1.000000
   79       -2.121427   1.000000
   80       -2.073014   1.000000
   81       -1.828360   1.000000
   82       -1.512780   1.000000
   83       -1.420365   1.000000
   84       -1.352106   1.000000
   85       -1.178447   1.000000
   86       -1.015201   1.000000
   87       -0.883676   1.000000
   88       -0.831724   1.000000
   89       -0.624867   1.000000
   90       -0.514850   1.000000
   91       -0.295616   1.000166
   92       -0.133943   1.035054
   93       -0.096796   1.012486
   94        0.099807  -0.030262
   95        0.109549  -0.034685
   96        0.180441  -0.012027
   97        0.195547  -0.007563
   98        0.345347  -0.000004
   99        0.374097  -0.000001
  100        0.721736  -0.000000
  101        0.785206  -0.000000
  102        0.818734  -0.000000
  103        0.892739  -0.000000
  104        0.995866  -0.000000
  105        1.004805  -0.000000
  106        1.099948  -0.000000
  107        1.226959  -0.000000
  108        1.240120  -0.000000
  109        1.321247  -0.000000
  110        1.329842  -0.000000
  111        1.447006  -0.000000
  112        1.501094  -0.000000
  113        1.565033  -0.000000
  114        1.651561  -0.000000
  115        1.684662  -0.000000
  116        1.711512  -0.000000
  117        1.843484  -0.000000
  118        1.975992  -0.000000
  119        2.053785  -0.000000
  120        3.755876   0.000000

  0.2222222E+00  0.9090909E-01  0.3065600E-15  0.6734007E-02
    1      -13.872341   1.000000
    2      -13.003336   1.000000
    3      -12.469053   1.000000
    4      -11.909771   1.000000
    5      -11.515696   1.000000
    6      -11.421992   1.000000
    7      -11.272614   1.000000
    8      -11.192887   1.000000
    9      -11.064105   1.000000
   10      -10.738663   1.000000
   11      -10.590347   1.000000
   12      -10.454054   1.000000
   13      -10.307353   1.000000
   14      -10.213663   1.000000
   15       -9.665430   1.000000
   16       -9.624000   1.000000
   17       -9.104539   1.000000
   18       -9.025034   1.000000
   19       -8.812276   1.000000
   20       -8.747690   1.000000
   21       -8.712900   1.000000
   22       -8.386361   1.000000
   23       -8.156130   1.000000
   24       -8.020525   1.000000
   25       -7.986602   1.000000
   26       -7.798357   1.000000
   27       -7.763745   1.000000
   28       -6.920885   1.000000
   29       -6.681914   1.000000
   30       -6.377406   1.000000
   31       -6.349885   1.000000
   32       -6.087883   1.000000
   33       -6.078705   1.000000
   34       -5.900366   1.000000
   35       -5.644733   1.000000
   36       -5.422800   1.000000
   37       -5.412868   1.000000
   38       -5.339283   1.000000
   39       -5.317923   1.000000
   40       -5.229784   1.000000
   41       -5.156655   1.000000
   42       -5.065366   1.000000
   43       -5.057030   1.000000
   44       -4.877592   1.000000
   45       -4.832725   1.000000
   46       -4.713074   1.000000
   47       -4.708539   1.000000
   48       -4.622792   1.000000