   71   71    1    1
  0.2199523E+02  0.1053953E-08  0.6141200E-09  0.2412750E-08  0.5000000E-15
   1.0000000000000000E-004
  CAR 
 Name                                    
    266     23    176

  0.3742002E-15  0.3742002E-15  0.1262379E-14  0.2222222E-01
    1      -13.925127   1.000000
    2      -12.936144   1.000000
    3      -12.782368   1.000000
    4      -12.392068   1.000000
    5      -11.818088   1.000000
    6      -11.643445   1.000000
    7      -11.594963   1.000000
    8      -11.562336   1.000000
    9      -11.416897   1.000000
   10      -11.188743   1.000000
   11      -11.060056   1.000000
   12      -10.978323   1.000000
   13      -10.800686   1.000000
   14      -10.395971   1.000000
   15      -10.246237   1.000000
   16      -10.163997   1.000000
   17      -10.085071   1.000000
   18      -10.011602   1.000000
   19       -9.823079   1.000000
   20       -9.615869   1.000000
   21       -9.577697   1.000000
   22       -9.476318   1.000000
   23       -9.247803   1.000000
   24       -8.951495   1.000000
   25       -8.881160   1.000000
   26       -8.701537   1.000000
   27       -8.568942   1.000000
   28       -8.322905   1.000000
   29       -8.288798   1.000000
   30       -8.096131   1.000000
   31       -7.995498   1.000000
   32       -7.786072   1.000000
   33       -7.479722   1.000000
   34       -7.330030   1.000000
   35       -7.182360   1.000000
   36       -7.121870   1.000000
   37       -7.027084   1.000000
   38       -6.905804   1.000000
   39       -6.759585   1.000000
   40       -6.721408   1.000000
   41       -6.651213   1.000000
   42       -6.583301   1.000000
   43       -6.481091   1.000000
   44       -6.378327   1.000000
   45       -6.318297   1.000000
   46       -6.226009   1.000000
   47       -6.105617   1.000000
   48       -5.982622   1.000000
   49       -5.951423   1.000000
   50       -5.878087   1.000000
   51       -5.748287   1.000000
   52       -5.693995   1.000000
   53       -5.666628   1.000000
   54       -5.578073   1.000000
   55       -5.545738   1.000000
   56       -5.414960   1.000000
   57       -5.329405   1.000000
   58       -5.290504   1.000000
   59       -5.151853   1.000000
   60       -5.127908   1.000000
   61       -5.020442   1.000000
   62       -4.960180   1.000000
   63       -4.792811   1.000000
   64       -4.681785   1.000000
   65       -4.648654   1.000000
   66       -4.579121   1.000000
   67       -4.547298   1.000000
   68       -4.491236   1.000000
   69       -4.443373   1.000000
   70       -4.408577   1.000000
   71       -4.367566   1.000000
   72       -4.220926   1.000000
   73       -4.196974   1.000000
   74       -4.142836   1.000000
   75       -4.105702   1.000000
   76       -4.006289   1.000000
   77       -3.933460   1.000000
   78       -3.861670   1.000000
   79       -3.741250   1.000000
   80       -3.689380   1.000000
   81       -3.676373   1.000000
   82       -3.580666   1.000000
   83       -3.541770   1.000000
   84       -3.394907   1.000000
   85       -3.309078   1.000000
   86       -3.290688   1.000000
   87       -3.280987   1.000000
   88       -3.245574   1.000000
   89       -3.170731   1.000000
   90       -3.131244   1.000000
   91       -3.054326   1.000000
   92       -3.003946   1.000000
   93       -2.928305   1.000000
   94       -2.840548   1.000000
   95       -2.770525   1.000000
   96       -2.668930   1.000000
   97       -2.627059   1.000000
   98       -2.601871   1.000000
   99       -2.521448   1.000000
  100       -2.406409   1.000000
  101       -2.368342   1.000000
  102       -2.297041   1.000000
  103       -2.264307   1.000000
  104       -2.243148   1.000000
  105       -2.116645   1.000000
  106       -2.090819   1.000000
  107       -2.063252   1.000000
  108       -2.038347   1.000000
  109       -1.943304   1.000000
  110       -1.930645   1.000000
  111       -1.757274   1.000000
  112       -1.742849   1.000000
  113       -1.713589   1.000000
  114       -1.648697   1.000000
  115       -1.383290   1.000000
  116       -1.258199   1.000000
  117       -1.219504   1.000000
  118       -1.159361   1.000000
  119       -1.076616   1.000000
  120       -0.977015   1.000000
  121       -0.884095   1.000000
  122       -0.846615   1.000000
  123       -0.598953   1.000000
  124       -0.510439   1.000010
  125       -0.411501   1.000184
  126       -0.280274   1.003690
  127       -0.241915   1.007296
  128       -0.150744   1.024357
  129       -0.108401   1.033116
  130       -0.022945   1.016721
  131        0.015103   0.973956
  132        0.040233   0.927593
  133        0.106642   0.730801
  134        0.185351   0.408884
  135        0.248844   0.173310
  136        0.297780   0.050845
  137        0.303837   0.039848
  138        0.361548  -0.023987
  139        0.423264  -0.034712
  140        0.478119  -0.024352
  141        0.595614  -0.004615
  142        0.708407  -0.000403
  143        0.754293  -0.000121
  144        0.768934  -0.000081
  145        0.893176  -0.000002
  146        0.989457  -0.000000
  147        1.030629  -0.000000
  148        1.108593  -0.000000
  149        1.142851  -0.000000
  150        1.160667  -0.000000
  151        1.232540  -0.000000
  152        1.236042  -0.000000
  153        1.280987  -0.000000
  154        1.313412  -0.000000
  155        1.355520  -0.000000
  156        1.392756  -0.000000
  157        1.433438  -0.000000
  158        1.448349  -0.000000
  159        1.496772  -0.000000
  160        1.516840  -0.000000
  161        1.535279  -0.000000
  162        1.574443  -0.000000
  163        1.646364  -0.000000
  164        1.686185  -0.000000
  165        1.709980  -0.000000
  166        1.777319  -0.000000
  167        1.839371  -0.000000
  168        1.898825  -0.000000
  169        1.969712  -0.000000
  170        2.066876  -0.000000
  171        2.173081  -0.000000
  172        2.360207  -0.000000
  173        2.528947  -0.000000
  174        2.624516  -0.000000
  175        2.803369  -0.000000
  176        3.824681  -0.000000

  0.2000000E+00  0.3742002E-15  0.1262379E-14  0.4444444E-01
    1      -13.884516   1.000000
    2      -13.176561   1.000000
    3      -12.665553   1.000000
    4      -12.154708   1.000000
    5      -11.953890   1.000000
    6      -11.808094   1.000000
    7      -11.632568   1.000000
    8      -11.384047   1.000000
    9      -11.231247   1.000000
   10      -11.200236   1.000000
   11      -11.024760   1.000000
   12      -10.895314   1.000000
   13      -10.791927   1.000000
   14      -10.573543   1.000000
   15      -10.457225   1.000000
   16      -10.297380   1.000000
   17      -10.163924   1.000000
   18      -10.035184   1.000000
   19       -9.717513   1.000000
   20       -9.668953   1.000000
   21       -9.422010   1.000000
   22       -9.391843   1.000000
   23       -9.255537   1.000000
   24       -9.018082   1.000000
   25       -8.906459   1.000000
   26       -8.749652   1.000000
   27       -8.332413   1.000000
   28       -8.228474   1.000000
   29       -8.085899   1.000000
   30       -8.040612   1.000000
   31       -8.007928   1.000000
   32       -7.933430   1.000000
   33       -7.441544   1.000000
   34       -7.402890   1.000000
   35       -7.322209   1.000000
   36       -7.114899   1.000000
   37       -7.094259   1.000000
   38       -7.048438   1.000000
   39       -6.836290   1.000000
   40       -6.712373   1.000000
   41       -6.667013   1.000000
   42       -6.576334   1.000000
   43       -6.479340   1.000000
   44       -6.438363   1.000000
   45       -6.345100   1.000000
   46       -6.192193   1.000000
   47       -6.036792   1.000000
   48       -5.950427   1.000000
   49       -5.909708   1.000000
   50       -5.852518   1.000000
   51       -5.781825   1.000000
   52       -5.701386   1.000000
   53       -5.639600   1.000000
   54       -5.532938   1.000000
   55       -5.452881   1.000000
   56       -5.379377   1.000000
   57       -5.315719   1.000000
   58       -5.265443   1.000000
   59       -5.176418   1.000000
   60       -5.103925   1.000000
   61       -5.034300   1.000000
   62       -4.974578   1.000000
   63       -4.774332   1.000000
   64       -4.733076   1.000000
   65       -4.646137   1.000000
   66       -4.625947   1.000000
   67       -4.523867   1.000000
   68       -4.479246   1.000000
   69       -4.409680   1.000000
   70       -4.375442   1.000000
   71       -4.339469   1.000000
   72       -4.269725   1.000000
   73       -4.205232   1.000000
   74       -4.151976   1.000000
   75       -4.070601   1.000000
   76       -3.977490   1.000000
   77       -3.942601   1.000000
   78       -3.821872   1.000000
   79       -3.783505   1.000000
   80       -3.762676   1.000000
   81       -3.687676   1.000000
   82       -3.593238   1.000000
   83       -3.470781   1.000000
   84       -3.401004   1.000000
   85       -3.383434   1.000000
   86       -3.344065   1.000000
   87       -3.265018   1.000000
   88       -3.244735   1.000000
   89       -3.204949   1.000000
   90       -3.095837   1.000000
   91       -3.068824   1.000000
   92       -2.977483   1.000000
   93       -2.955092   1.000000
   94       -2.920526   1.000000
   95       -2.811804   1.000000
   96       -2.669725   1.000000
   97       -2.631453   1.000000
   98       -2.526887   1.000000
   99       -2.489490   1.000000
  100       -2.457001   1.000000
  101       -2.392704   1.000000
  102       -2.254851   1.000000
  103       -2.234091   1.000000
  104       -2.186294   1.000000
  105       -2.116482   1.000000
  106       -2.085925   1.000000
  107       -2.011184   1.000000
  108       -1.987058   1.000000
  109       -1.940837   1.000000
  110       -1.893717   1.000000
  111       -1.796915   1.000000
  112       -1.710097   1.000000
  113       -1.668850   1.000000
  114       -1.590220   1.000000
  115       -1.396725   1.000000
  116       -1.290872   1.000000
  117       -1.234931   1.000000
  118       -1.169221   1.000000
  119       -1.105145   1.000000
  120       -1.020469   1.000000
  121       -0.928529   1.000000
  122       -0.861106   1.000000
  123       -0.651001   1.000000
  124       -0.582589   1.000001
  125       -0.391758   1.000307
  126       -0.304920   1.002269
  127       -0.263090   1.005067
  128       -0.208211   1.012253
  129       -0.175674   1.018689
  130       -0.081056   1.035458
  131       -0.052431   1.031593
  132        0.039293   0.929609
  133        0.091678   0.783873
  134        0.182256   0.421762
  135        0.266894   0.121196
  136        0.318634   0.016688
  137        0.337683  -0.005857
  138        0.415665  -0.035276
  139        0.470538  -0.026099
  140        0.531149  -0.013037
  141        0.581168  -0.005966
  142        0.719347  -0.000306
  143        0.769141  -0.000080
  144        0.821155  -0.000017
  145        0.959072  -0.000000
  146        1.000628  -0.000000
  147        1.035477  -0.000000
  148        1.090799  -0.000000
  149        1.127234  -0.000000
  150        1.170127  -0.000000
  151        1.223577  -0.000000
  152        1.248771  -0.000000
  153        1.302734  -0.000000
  154        1.352869  -0.000000
  155        1.378472  -0.000000
  156        1.415986  -0.000000
  157        1.442350  -0.000000
  158        1.467984  -0.000000
  159        1.493479  -0.000000
  160        1.524061  -0.000000
  161        1.562659  -0.000000
  162        1.614584  -0.000000
  163        1.636866  -0.000000
  164        1.683474  -0.000000
  165        1.711986  -0.000000
  166        1.756954  -0.000000
  167        1.791264  -0.000000
  168        1.816272  -0.000000
  169        1.941722  -0.000000
  170        1.992558  -0.000000
  171        2.074459  -0.000000
  172        2.155695  -0.000000
  173        2.208266  -0.000000
  174        2.412813  -0.000000
  175        2.643114  -0.000000
  176        2.907216  -0.000000

  0.4000000E+00  0.3742002E-15  0.1262379E-14  0.4444444E-01
    1      -13.782414   1.000000
    2      -13.431580   1.000000
    3      -12.546314   1.000000
    4      -12.216277   1.000000
    5      -11.789672   1.000000
    6      -11.684628   1.000000
    7      -11.672169   1.000000
    8      -11.344704   1.000000
    9      -11.216595   1.000000
   10      -11.129093   1.000000
   11      -10.985525   1.000000
   12      -10.950201   1.000000
   13      -10.782762   1.000000
   14      -10.666535   1.000000
   15      -10.568300   1.000000
   16      -10.479553   1.000000
   17      -10.170288   1.000000
   18       -9.992846   1.000000
   19       -9.980720   1.000000
   20       -9.790982   1.000000
   21       -9.369968   1.000000
   22       -9.317851   1.000000
   23       -9.116318   1.000000
   24       -8.949690   1.000000
   25       -8.831803   1.000000
   26       -8.678200   1.000000
   27       -8.346543   1.000000
   28       -8.093216   1.000000
   29       -7.980862   1.000000
   30       -7.832492   1.000000
   31       -7.804916   1.000000
   32       -7.741872   1.000000
   33       -7.665410   1.000000
   34       -7.595061   1.000000
   35       -7.434782   1.000000
   36       -7.366750   1.000000
   37       -7.235917   1.000000
   38       -7.133349   1.000000
   39       -7.061458   1.000000
   40       -6.792703   1.000000
   41       -6.671324   1.000000
   42       -6.532973   1.000000
   43       -6.456982   1.000000
   44       -6.363681   1.000000
   45       -6.229612   1.000000
   46       -6.086442   1.000000
   47       -6.053457   1.000000
   48       -5.973656   1.000000
   49       -5.960382   1.000000
   50       -5.846672   1.000000
   51       -5.770725   1.000000
   52       -5.634699   1.000000
   53       -5.564142   1.000000
   54       -5.540022   1.000000
   55       -5.454893   1.000000
   56       -5.412763   1.000000
   57       -5.262786   1.000000
   58       -5.208214   1.000000
   59       -5.152705   1.000000
   60       -5.064668   1.000000
   61       -5.012043   1.000000
   62       -4.930766   1.000000
   63       -4.814983   1.000000
   64       -4.695836   1.000000
   65       -4.660627   1.000000
   66       -4.596317   1.000000
   67       -4.571329   1.000000
   68       -4.472137   1.000000
   69       -4.437704   1.000000
   70       -4.386724   1.000000
   71       -4.306770   1.000000
   72       -4.255923   1.000000
   73       -4.220235   1.000000
   74       -4.081149   1.000000
   75       -4.040283   1.000000
   76       -3.950098   1.000000
   77       -3.906575   1.000000
   78       -3.872016   1.000000
   79       -3.841449   1.000000
   80       -3.778055   1.000000
   81       -3.679050   1.000000
   82       -3.607821   1.000000
   83       -3.522389   1.000000
   84       -3.475532   1.000000
   85       -3.414518   1.000000
   86       -3.379113   1.000000
   87       -3.313758   1.000000
   88       -3.198780   1.000000
   89       -3.179684   1.000000
   90       -3.099069   1.000000
   91       -3.078539   1.000000
   92       -3.066522   1.000000
   93       -2.918472   1.000000
   94       -2.902345   1.000000
   95       -2.850858   1.000000
   96       -2.812866   1.000000
   97       -2.632022   1.000000
   98       -2.557585   1.000000
   99       -2.510722   1.000000
  100       -2.463135   1.000000
  101       -2.299566   1.000000
  102       -2.214253   1.000000
  103       -2.203611   1.000000
  104       -2.110767   1.000000
  105       -2.096256   1.000000
  106       -1.987694   1.000000
  107       -1.957955   1.000000
  108       -1.916887   1.000000
  109       -1.867403   1.000000
  110       -1.829154   1.000000
  111       -1.744609   1.000000
  112       -1.672784   1.000000
  113       -1.623010   1.000000
  114       -1.553978   1.000000
  115       -1.457490   1.000000
  116       -1.386386   1.000000
  117       -1.308640   1.000000
  118       -1.238572   1.000000
  119       -1.063059   1.000000
  120       -1.046452   1.000000
  121       -0.973648   1.000000
  122       -0.907029   1.000000
  123       -0.741915   1.000000
  124       -0.712343   1.000000
  125       -0.448717   1.000066
  126       -0.332270   1.001267
  127       -0.305739   1.002231
  128       -0.289139   1.003111
  129       -0.251206   1.006240
  130       -0.171721   1.019561
  131       -0.102818   1.033920
  132        0.025027   0.957495
  133        0.163926   0.498948
  134        0.209840   0.310319
  135        0.260687   0.138225
  136        0.335993  -0.004168
  137        0.367289  -0.026901
  138        0.427170  -0.034294
  139        0.499362  -0.019497
  140        0.556669  -0.008938
  141        0.692073  -0.000600
  142        0.721781  -0.000287
  143        0.848533  -0.000007
  144        0.888583  -0.000002
  145        0.917048  -0.000001
  146        0.949019  -0.000000
  147        1.079282  -0.000000
  148        1.128416  -0.000000
  149        1.194219  -0.000000
  150        1.215756  -0.000000
  151        1.250908  -0.000000
  152        1.271092  -0.000000
  153        1.306969  -0.000000
  154        1.352110  -0.000000
  155        1.404199  -0.000000
  156        1.426845  -0.000000
  157        1.452361  -0.000000
  158        1.486528  -0.000000
  159        1.535203  -0.000000
  160        1.558038  -0.000000
  161        1.622161  -0.000000
  162        1.656901  -0.000000
  163        1.681325  -0.000000
  164        1.719516  -0.000000
  165        1.728947  -0.000000
  166        1.779830  -0.000000
  167        1.802548  -0.000000
  168        1.916217  -0.000000
  169        1.962618  -0.000000
  170        1.991195  -0.000000
  171        2.039268  -0.000000
  172        2.104681  -0.000000
  173        2.152377  -0.000000
  174        2.282283  -0.000000
  175        2.446714  -0.000000
  176        2.670495  -0.000000

  0.3742002E-15  0.1111111E+00  0.1262379E-14  0.4444444E-01
    1      -13.879491   1.000000
    2      -12.897385   1.000000
    3      -12.747587   1.000000
    4      -12.361194   1.000000
    5      -11.913302   1.000000
    6      -11.638895   1.000000
    7      -11.600466   1.000000
    8      -11.541824   1.000000
    9      -11.461072   1.000000
   10      -11.210994   1.000000
   11      -11.069972   1.000000
   12      -10.951865   1.000000
   13      -10.828361   1.000000
   14      -10.396393   1.000000
   15      -10.228164   1.000000
   16      -10.179079   1.000000
   17      -10.072492   1.000000
   18      -10.010501   1.000000
   19       -9.793975   1.000000
   20       -9.642691   1.000000
   21       -9.566224   1.000000
   22       -9.481428   1.000000
   23       -9.241289   1.000000
   24       -8.984902   1.000000
   25       -8.897206   1.000000
   26       -8.680345   1.000000
   27       -8.552227   1.000000
   28       -8.346217   1.000000
   29       -8.286942   1.000000
   30       -8.116600   1.000000
   31       -7.852336   1.000000
   32       -7.794650   1.000000
   33       -7.562508   1.000000
   34       -7.372981   1.000000
   35       -7.205394   1.000000
   36       -7.189562   1.000000
   37       -7.079777   1.000000
   38       -6.878712   1.000000
   39       -6.718299   1.000000
   40       -6.686363   1.000000
   41       -6.631983   1.000000
   42       -6.565717   1.000000
   43       -6.450542   1.000000
   44       -6.366854   1.000000
   45       -6.299843   1.000000
   46       -6.226914   1.000000
   47       -6.114603   1.000000
   48       -6.003378   1.000000
   49       -5.911116   1.000000
   50       -5.865520   1.000000
   51       -5.763792   1.000000
   52       -5.697368   1.000000
   53       -5.663792   1.000000
   54       -5.598971   1.000000
   55       -5.509443   1.000000
   56       -5.342535   1.000000
   57       -5.300833   1.000000
   58       -5.211086   1.000000
   59       -5.178998   1.000000
   60       -5.116182   1.000000
   61       -4.988744   1.000000
   62       -4.929840   1.000000
   63       -4.778124   1.000000
   64       -4.684908   1.000000
   65       -4.649411   1.000000
   66       -4.604871   1.000000
   67       -4.563823   1.000000
   68       -4.502588   1.000000
   69       -4.460476   1.000000
   70       -4.424359   1.000000
   71       -4.317040   1.000000
   72       -4.254730   1.000000
   73       -4.177390   1.000000
   74       -4.119893   1.000000
   75       -4.089089   1.000000
   76       -4.016423   1.000000
   77       -3.928450   1.000000
   78       -3.862283   1.000000
   79       -3.776438   1.000000
   80       -3.747495   1.000000
   81       -3.694978   1.000000
   82       -3.630566   1.000000
   83       -3.552871   1.000000
   84       -3.450780   1.000000
   85       -3.431565   1.000000
   86       -3.335444   1.000000
   87       -3.243851   1.000000
   88       -3.208139   1.000000
   89       -3.176991   1.000000
   90       -3.106572   1.000000
   91       -3.080998   1.000000
   92       -3.013192   1.000000
   93       -2.979511   1.000000
   94       -2.871712   1.000000
   95       -2.781274   1.000000
   96       -2.673550   1.000000
   97       -2.654811   1.000000
   98       -2.587308   1.000000
   99       -2.511943   1.000000
  100       -2.461011   1.000000
  101       -2.366654   1.000000
  102       -2.323422   1.000000
  103       -2.293935   1.000000
  104       -2.215693   1.000000
  105       -2.189635   1.000000
  106       -2.109542   1.000000
  107       -2.084728   1.000000
  108       -1.994473   1.000000
  109       -1.925056   1.000000
  110       -1.867090   1.000000
  111       -1.793553   1.000000
  112       -1.728858   1.000000
  113       -1.632303   1.000000
  114       -1.590518   1.000000
  115       -1.386516   1.000000
  116       -1.312271   1.000000
  117       -1.229786   1.000000
  118       -1.143130   1.000000
  119       -1.121420   1.000000
  120       -0.959902   1.000000
  121       -0.866339   1.000000
  122       -0.785245   1.000000
  123       -0.606875   1.000000
  124       -0.523137   1.000007
  125       -0.412574   1.000179
  126       -0.293913   1.002832
  127       -0.241685   1.007324
  128       -0.220544   1.010229
  129       -0.147888   1.025017
  130       -0.122211   1.030647
  131       -0.065569   1.034403
  132        0.066015   0.863611
  133        0.177775   0.440510
  134        0.199853   0.349670
  135        0.256642   0.149831
  136        0.304938   0.037945
  137        0.347104  -0.014253
  138        0.407747  -0.035455
  139        0.501808  -0.018957
  140        0.540840  -0.011358
  141        0.619211  -0.002950
  142        0.693126  -0.000585
  143        0.800430  -0.000032
  144        0.821584  -0.000017
  145        0.907677  -0.000001
  146        0.943913  -0.000000
  147        1.012332  -0.000000
  148        1.061763  -0.000000
  149        1.121821  -0.000000
  150        1.197816  -0.000000
  151        1.216994  -0.000000
  152        1.243452  -0.000000
  153        1.283249  -0.000000
  154        1.302518  -0.000000
  155        1.357456  -0.000000
  156        1.367850  -0.000000
  157        1.426383  -0.000000
  158        1.447495  -0.000000
  159        1.463613  -0.000000
  160        1.500344  -0.000000
  161        1.546980  -0.000000
  162        1.560518  -0.000000
  163        1.597463  -0.000000
  164        1.633990  -0.000000
  165        1.690140  -0.000000
  166        1.731343  -0.000000
  167        1.773312  -0.000000
  168        1.833510  -0.000000
  169        1.903233  -0.000000
  170        1.953616  -0.000000
  171        2.051876  -0.000000
  172        2.093211  -0.000000
  173        2.167612  -0.000000
  174        2.282753  -0.000000
  175        2.623880  -0.000000
  176        2.783580  -0.000000

  0.2000000E+00  0.1111111E+00  0.1262379E-14  0.4444444E-01
    1      -13.839290   1.000000
    2      -13.136937   1.000000
    3      -12.628950   1.000000
    4      -12.131950   1.000000
    5      -11.924996   1.000000
    6      -11.894072   1.000000
    7      -11.678380   1.000000
    8      -11.419300   1.000000
    9      -11.237421   1.000000
   10      -11.191435   1.000000
   11      -11.039200   1.000000
   12      -10.871014   1.000000
   13      -10.813539   1.000000
   14      -10.560855   1.000000
   15      -10.450753   1.000000
   16      -10.279766   1.000000
   17      -10.178382   1.000000
   18      -10.042805   1.000000
   19       -9.723345   1.000000
   20       -9.645256   1.000000
   21       -9.446249   1.000000
   22       -9.371582   1.000000
   23       -9.256217   1.000000
   24       -9.017519   1.000000
   25       -8.938418   1.000000
   26       -8.731807   1.000000
   27       -8.346160   1.000000
   28       -8.230835   1.000000
   29       -8.103215   1.000000
   30       -8.055291   1.000000
   31       -8.002448   1.000000
   32       -7.801830   1.000000
   33       -7.519332   1.000000
   34       -7.466880   1.000000
   35       -7.331343   1.000000
   36       -7.162567   1.000000
   37       -7.082122   1.000000
   38       -6.952376   1.000000
   39       -6.826732   1.000000
   40       -6.743135   1.000000
   41       -6.670721   1.000000
   42       -6.584679   1.000000
   43       -6.493352   1.000000
   44       -6.384233   1.000000
   45       -6.343347   1.000000
   46       -6.293953   1.000000
   47       -6.072829   1.000000
   48       -5.924993   1.000000
   49       -5.828296   1.000000
   50       -5.784466   1.000000
   51       -5.753757   1.000000
   52       -5.697643   1.000000
   53       -5.634595   1.000000
   54       -5.503788   1.000000
   55       -5.441304   1.000000
   56       -5.369169   1.000000
   57       -5.317416   1.000000
   58       -5.231325   1.000000
   59       -5.140382   1.000000
   60       -5.098637   1.000000
   61       -5.005708   1.000000
   62       -4.948548   1.000000
   63       -4.775718   1.000000
   64       -4.721251   1.000000
   65       -4.660609   1.000000
   66       -4.601886   1.000000
   67       -4.530243   1.000000
   68       -4.501119   1.000000
   69       -4.455362   1.000000
   70       -4.353495   1.000000
   71       -4.296936   1.000000
   72       -4.262155   1.000000
   73       -4.231957   1.000000
   74       -4.146053   1.000000
   75       -4.029507   1.000000
   76       -3.992113   1.000000
   77       -3.947100   1.000000
   78       -3.851830   1.000000
   79       -3.829332   1.000000
   80       -3.755071   1.000000
   81       -3.682468   1.000000
   82       -3.615919   1.000000
   83       -3.548273   1.000000
   84       -3.491537   1.000000
   85       -3.431058   1.000000
   86       -3.361421   1.000000
   87       -3.298294   1.000000
   88       -3.212940   1.000000
   89       -3.172684   1.000000
   90       -3.124905   1.000000
   91       -3.080945   1.000000
   92       -3.042974   1.000000
   93       -2.991983   1.000000
   94       -2.921398   1.000000
   95       -2.745929   1.000000
   96       -2.714131   1.000000
   97       -2.629432   1.000000
   98       -2.538365   1.000000
   99       -2.516722   1.000000
  100       -2.430448   1.000000
  101       -2.402464   1.000000
  102       -2.292637   1.000000
  103       -2.246789   1.000000
  104       -2.220049   1.000000
  105       -2.173270   1.000000
  106       -2.135415   1.000000
  107       -2.025709   1.000000
  108       -1.965690   1.000000
  109       -1.897342   1.000000
  110       -1.857332   1.000000
  111       -1.784105   1.000000
  112       -1.720883   1.000000
  113       -1.636957   1.000000
  114       -1.568087   1.000000
  115       -1.385060   1.000000
  116       -1.353737   1.000000
  117       -1.245501   1.000000
  118       -1.170846   1.000000
  119       -1.134563   1.000000
  120       -1.023207   1.000000
  121       -0.846993   1.000000
  122       -0.811550   1.000000
  123       -0.655385   1.000000
  124       -0.571335   1.000001
  125       -0.428736   1.000115
  126       -0.328513   1.001376
  127       -0.266000   1.004808
  128       -0.211480   1.011693
  129       -0.187768   1.016128
  130       -0.149045   1.024750
  131       -0.035283   1.024579
  132        0.045943   0.914867
  133        0.148878   0.562434
  134        0.185789   0.407069
  135        0.255392   0.153498
  136        0.315667   0.020921
  137        0.383486  -0.032588
  138        0.443225  -0.031855
  139        0.480630  -0.023771
  140        0.595601  -0.004616
  141        0.637913  -0.002019
  142        0.695823  -0.000548
  143        0.799103  -0.000034
  144        0.845397  -0.000008
  145        0.936749  -0.000000
  146        0.986679  -0.000000
  147        1.043583  -0.000000
  148        1.098278  -0.000000
  149        1.122694  -0.000000
  150        1.186850  -0.000000
  151        1.212686  -0.000000
  152        1.256743  -0.000000
  153        1.302160  -0.000000
  154        1.326838  -0.000000
  155        1.362231  -0.000000
  156        1.386685  -0.000000
  157        1.421863  -0.000000
  158        1.453118  -0.000000
  159        1.471640  -0.000000
  160        1.514376  -0.000000
  161        1.568067  -0.000000
  162        1.598352  -0.000000
  163        1.626123  -0.000000
  164        1.657269  -0.000000
  165        1.702544  -0.000000
  166        1.746980  -0.000000
  167        1.809640  -0.000000
  168        1.842282  -0.000000
  169        1.891347  -0.000000
  170        1.988468  -0.000000
  171        2.060086  -0.000000
  172        2.213125  -0.000000
  173        2.310347  -0.000000
  174        2.385160  -0.000000
  175        2.824017  -0.000000
  176        3.726994  -0.000000

  0.4000000E+00  0.1111111E+00  0.1262379E-14  0.4444444E-01
    1      -13.737992   1.000000
    2      -13.390126   1.000000
    3      -12.510071   1.000000
    4      -12.184565   1.000000
    5      -11.879712   1.000000
    6      -11.748350   1.000000
    7      -11.641122   1.000000
    8      -11.372719   1.000000
    9      -11.237992   1.000000
   10      -11.104444   1.000000
   11      -10.983226   1.000000