 running on   72 total cores
 distrk:  each k-point on   72 cores,    1 groups
 distr:  one band on    9 cores,    8 groups
 using from now: INCAR     
 vasp.5.4.4.18Apr17-6-g9f103f2a35 (build Dec  7 2020 12:43:57) complex           
 POSCAR found type information on POSCAR  Mo V  B  H 
 POSCAR found :  4 types and      71 ions
 scaLAPACK will be used

 ----------------------------------------------------------------------------- 
|                                                                             |
|  ADVICE TO THIS USER RUNNING 'VASP/VAMP'   (HEAR YOUR MASTER'S VOICE ...):  |
|                                                                             |
|      You enforced a specific xc-type in the INCAR file,                     |
|      a different type was found on the POTCAR file                          |
|          I HOPE YOU KNOW, WHAT YOU ARE  DOING                               |
|                                                                             |
 ----------------------------------------------------------------------------- 

 LDA part: xc-table for Pade appr. of Perdew
 POSCAR, INCAR and KPOINTS ok, starting setup
 resort distribution
 resort distribution
 resort distribution
 resort distribution
 resort distribution
 resort distribution
 resort distribution
 resort distribution
 resort distribution
 resort distribution
 resort distribution
 resort distribution
 resort distribution
 resort distribution
 resort distribution
 resort distribution
 resort distribution
 resort distribution
 resort distribution
 resort distribution
 resort distribution
 resort distribution
 resort distribution
 resort distribution
 resort distribution
 resort distribution
 resort distribution
 resort distribution
 resort distribution
 resort distribution
 resort distribution
 resort distribution
 resort distribution
 resort distribution
 resort distribution
 resort distribution
 resort distribution
 resort distribution
 resort distribution
 resort distribution
 resort distribution
 resort distribution
 resort distribution
 resort distribution
 resort distribution
 resort distribution
 resort distribution
 resort distribution
 resort distribution
 resort distribution
 resort distribution
 resort distribution
 resort distribution
 resort distribution
 resort distribution
 resort distribution
 resort distribution
 resort distribution
 resort distribution
 resort distribution
 resort distribution
 resort distribution
 resort distribution
 resort distribution
 resort distribution
 resort distribution
 resort distribution
 resort distribution
 resort distribution
 resort distribution
 resort distribution
 resort distribution
 FFT: planning ...
 WAVECAR not read
 augmentation electrons   266.05166298041070     
 soft         electrons   0.0000000000000000     
 augmentation electrons   266.05166298041070     
 soft         electrons   0.0000000000000000     
 augmentation electrons   266.05166298041070     
 soft         electrons   0.0000000000000000     
 augmentation electrons   266.05166298041070     
 soft         electrons   0.0000000000000000     
 augmentation electrons   266.05166298041070     
 soft         electrons   0.0000000000000000     
 augmentation electrons   266.05166298041070     
 soft         electrons   0.0000000000000000     
 augmentation electrons   266.05166298041070     
 soft         electrons   0.0000000000000000     
 augmentation electrons   266.05166298041070     
 soft         electrons   0.0000000000000000     
 augmentation electrons   266.05166298041070     
 soft         electrons   0.0000000000000000     
 augmentation electrons   266.05166298041070     
 soft         electrons   0.0000000000000000     
 augmentation electrons   266.05166298041070     
 soft         electrons   0.0000000000000000     
 augmentation electrons   266.05166298041070     
 soft         electrons   0.0000000000000000     
 augmentation electrons   266.05166298041070     
 soft         electrons   0.0000000000000000     
 augmentation electrons   266.05166298041070     
 soft         electrons   0.0000000000000000     
 augmentation electrons   266.05166298041070     
 soft         electrons   0.0000000000000000     
 augmentation electrons   266.05166298041070     
 soft         electrons   0.0000000000000000     
 augmentation electrons   266.05166298041070     
 soft         electrons   0.0000000000000000     
 augmentation electrons   266.05166298041070     
 soft         electrons   0.0000000000000000     
 augmentation electrons   266.05166298041070     
 soft         electrons   0.0000000000000000     
 augmentation electrons   266.05166298041070     
 soft         electrons   0.0000000000000000     
 augmentation electrons   266.05166298041070     
 soft         electrons   0.0000000000000000     
 augmentation electrons   266.05166298041070     
 soft         electrons   0.0000000000000000     
 augmentation electrons   266.05166298041070     
 soft         electrons   0.0000000000000000     
 augmentation electrons   266.05166298041070     
 soft         electrons   0.0000000000000000     
 augmentation electrons   266.05166298041070     
 soft         electrons   0.0000000000000000     
 augmentation electrons   266.05166298041070     
 soft         electrons   0.0000000000000000     
 augmentation electrons   266.05166298041070     
 soft         electrons   0.0000000000000000     
 augmentation electrons   266.05166298041070     
 soft         electrons   0.0000000000000000     
 augmentation electrons   266.05166298041070     
 soft         electrons   0.0000000000000000     
 augmentation electrons   266.05166298041070     
 soft         electrons   0.0000000000000000     
 augmentation electrons   266.05166298041070     
 soft         electrons   0.0000000000000000     
 augmentation electrons   266.05166298041070     
 soft         electrons   0.0000000000000000     
 augmentation electrons   266.05166298041070     
 soft         electrons   0.0000000000000000     
 augmentation electrons   266.05166298041070     
 soft         electrons   0.0000000000000000     
 augmentation electrons   266.05166298041070     
 soft         electrons   0.0000000000000000     
 augmentation electrons   266.05166298041070     
 soft         electrons   0.0000000000000000     
 augmentation electrons   266.05166298041070     
 soft         electrons   0.0000000000000000     
 augmentation electrons   266.05166298041070     
 soft         electrons   0.0000000000000000     
 augmentation electrons   266.05166298041070     
 soft         electrons   0.0000000000000000     
 augmentation electrons   266.05166298041070     
 soft         electrons   0.0000000000000000     
 augmentation electrons   266.05166298041070     
 soft         electrons   0.0000000000000000     
 augmentation electrons   266.05166298041070     
 soft         electrons   0.0000000000000000     
 augmentation electrons   266.05166298041070     
 soft         electrons   0.0000000000000000     
 augmentation electrons   266.05166298041070     
 soft         electrons   0.0000000000000000     
 augmentation electrons   266.05166298041070     
 soft         electrons   0.0000000000000000     
 augmentation electrons   266.05166298041070     
 soft         electrons   0.0000000000000000     
 augmentation electrons   266.05166298041070     
 soft         electrons   0.0000000000000000     
 augmentation electrons   266.05166298041070     
 soft         electrons   0.0000000000000000     
 augmentation electrons   266.05166298041070     
 soft         electrons   0.0000000000000000     
 augmentation electrons   266.05166298041070     
 soft         electrons   0.0000000000000000     
 augmentation electrons   266.05166298041070     
 soft         electrons   0.0000000000000000     
 augmentation electrons   266.05166298041070     
 soft         electrons   0.0000000000000000     
 augmentation electrons   266.05166298041070     
 soft         electrons   0.0000000000000000     
 augmentation electrons   266.05166298041070     
 soft         electrons   0.0000000000000000     
 augmentation electrons   266.05166298041070     
 soft         electrons   0.0000000000000000     
 augmentation electrons   266.05166298041070     
 soft         electrons   0.0000000000000000     
 augmentation electrons   266.05166298041070     
 soft         electrons   0.0000000000000000     
 augmentation electrons   266.05166298041070     
 soft         electrons   0.0000000000000000     
 augmentation electrons   266.05166298041070     
 soft         electrons   0.0000000000000000     
 augmentation electrons   266.05166298041070     
 soft         electrons   0.0000000000000000     
 augmentation electrons   266.05166298041070     
 soft         electrons   0.0000000000000000     
 augmentation electrons   266.05166298041070     
 soft         electrons   0.0000000000000000     
 augmentation electrons   266.05166298041070     
 soft         electrons   0.0000000000000000     
 augmentation electrons   266.05166298041070     
 soft         electrons   0.0000000000000000     
 augmentation electrons   266.05166298041070     
 soft         electrons   0.0000000000000000     
 augmentation electrons   266.05166298041070     
 soft         electrons   0.0000000000000000     
 augmentation electrons   266.05166298041070     
 soft         electrons   0.0000000000000000     
 augmentation electrons   266.05166298041070     
 soft         electrons   0.0000000000000000     
 augmentation electrons   266.05166298041070     
 soft         electrons   0.0000000000000000     
 augmentation electrons   266.05166298041070     
 soft         electrons   0.0000000000000000     
 augmentation electrons   266.05166298041070     
 soft         electrons   0.0000000000000000     
 augmentation electrons   266.05166298041070     
 soft         electrons   0.0000000000000000     
 total        electrons   266.05166298041070     
 total        electrons   266.05166298041070     
 total        electrons   266.05166298041070     
 total        electrons   266.05166298041070     
 total        electrons   266.05166298041070     
 total        electrons   266.05166298041070     
 total        electrons   266.05166298041070     
 total        electrons   266.05166298041070     
 total        electrons   266.05166298041070     
 total        electrons   266.05166298041070     
 total        electrons   266.05166298041070     
 total        electrons   266.05166298041070     
 total        electrons   266.05166298041070     
 total        electrons   266.05166298041070     
 total        electrons   266.05166298041070     
 total        electrons   266.05166298041070     
 total        electrons   266.05166298041070     
 total        electrons   266.05166298041070     
 total        electrons   266.05166298041070     
 total        electrons   266.05166298041070     
 total        electrons   266.05166298041070     
 total        electrons   266.05166298041070     
 total        electrons   266.05166298041070     
 total        electrons   266.05166298041070     
 total        electrons   266.05166298041070     
 total        electrons   266.05166298041070     
 total        electrons   266.05166298041070     
 total        electrons   266.05166298041070     
 total        electrons   266.05166298041070     
 total        electrons   266.05166298041070     
 total        electrons   266.05166298041070     
 total        electrons   266.05166298041070     
 total        electrons   266.05166298041070     
 total        electrons   266.05166298041070     
 total        electrons   266.05166298041070     
 total        electrons   266.05166298041070     
 total        electrons   266.05166298041070     
 total        electrons   266.05166298041070     
 total        electrons   266.05166298041070     
 total        electrons   266.05166298041070     
 total        electrons   266.05166298041070     
 total        electrons   266.05166298041070     
 total        electrons   266.05166298041070     
 total        electrons   266.05166298041070     
 total        electrons   266.05166298041070     
 total        electrons   266.05166298041070     
 total        electrons   266.05166298041070     
 total        electrons   266.05166298041070     
 total        electrons   266.05166298041070     
 total        electrons   266.05166298041070     
 total        electrons   266.05166298041070     
 total        electrons   266.05166298041070     
 total        electrons   266.05166298041070     
 total        electrons   266.05166298041070     
 total        electrons   266.05166298041070     
 total        electrons   266.05166298041070     
 total        electrons   266.05166298041070     
 total        electrons   266.05166298041070     
 total        electrons   266.05166298041070     
 total        electrons   266.05166298041070     
 total        electrons   266.05166298041070     
 total        electrons   266.05166298041070     
 total        electrons   266.05166298041070     
 total        electrons   266.05166298041070     
 total        electrons   266.05166298041070     
 total        electrons   266.05166298041070     
 total        electrons   266.05166298041070     
 total        electrons   266.05166298041070     
 total        electrons   266.05166298041070     
 total        electrons   266.05166298041070     
 total        electrons   266.05166298041070     
 total        electrons   266.05166298041070     
 augmentation electrons   1083.7139634040316     
 soft         electrons   0.0000000000000000     
 augmentation electrons   1083.7139634040316     
 soft         electrons   0.0000000000000000     
 augmentation electrons   1083.7139634040316     
 soft         electrons   0.0000000000000000     
 augmentation electrons   1083.7139634040316     
 soft         electrons   0.0000000000000000     
 augmentation electrons   1083.7139634040316     
 soft         electrons   0.0000000000000000     
 augmentation electrons   1083.7139634040316     
 soft         electrons   0.0000000000000000     
 augmentation electrons   1083.7139634040316     
 soft         electrons   0.0000000000000000     
 augmentation electrons   1083.7139634040316     
 soft         electrons   0.0000000000000000     
 augmentation electrons   1083.7139634040316     
 soft         electrons   0.0000000000000000     
 augmentation electrons   1083.7139634040316     
 soft         electrons   0.0000000000000000     
 augmentation electrons   1083.7139634040316     
 soft         electrons   0.0000000000000000     
 augmentation electrons   1083.7139634040316     
 soft         electrons   0.0000000000000000     
 augmentation electrons   1083.7139634040316     
 soft         electrons   0.0000000000000000     
 augmentation electrons   1083.7139634040316     
 soft         electrons   0.0000000000000000     
 augmentation electrons   1083.7139634040316     
 soft         electrons   0.0000000000000000     
 augmentation electrons   1083.7139634040316     
 soft         electrons   0.0000000000000000     
 augmentation electrons   1083.7139634040316     
 soft         electrons   0.0000000000000000     
 augmentation electrons   1083.7139634040316     
 soft         electrons   0.0000000000000000     
 augmentation electrons   1083.7139634040316     
 soft         electrons   0.0000000000000000     
 augmentation electrons   1083.7139634040316     
 soft         electrons   0.0000000000000000     
 augmentation electrons   1083.7139634040316     
 soft         electrons   0.0000000000000000     
 augmentation electrons   1083.7139634040316     
 soft         electrons   0.0000000000000000     
 augmentation electrons   1083.7139634040316     
 soft         electrons   0.0000000000000000     
 augmentation electrons   1083.7139634040316     
 soft         electrons   0.0000000000000000     
 augmentation electrons   1083.7139634040316     
 soft         electrons   0.0000000000000000     
 augmentation electrons   1083.7139634040316     
 soft         electrons   0.0000000000000000     
 augmentation electrons   1083.7139634040316     
 soft         electrons   0.0000000000000000     
 augmentation electrons   1083.7139634040316     
 soft         electrons   0.0000000000000000     
 augmentation electrons   1083.7139634040316     
 soft         electrons   0.0000000000000000     
 augmentation electrons   1083.7139634040316     
 soft         electrons   0.0000000000000000     
 augmentation electrons   1083.7139634040316     
 soft         electrons   0.0000000000000000     
 augmentation electrons   1083.7139634040316     
 soft         electrons   0.0000000000000000     
 augmentation electrons   1083.7139634040316     
 soft         electrons   0.0000000000000000     
 augmentation electrons   1083.7139634040316     
 soft         electrons   0.0000000000000000     
 augmentation electrons   1083.7139634040316     
 soft         electrons   0.0000000000000000     
 augmentation electrons   1083.7139634040316     
 soft         electrons   0.0000000000000000     
 augmentation electrons   1083.7139634040316     
 soft         electrons   0.0000000000000000     
 augmentation electrons   1083.7139634040316     
 soft         electrons   0.0000000000000000     
 augmentation electrons   1083.7139634040316     
 soft         electrons   0.0000000000000000     
 augmentation electrons   1083.7139634040316     
 soft         electrons   0.0000000000000000     
 augmentation electrons   1083.7139634040316     
 soft         electrons   0.0000000000000000     
 augmentation electrons   1083.7139634040316     
 soft         electrons   0.0000000000000000     
 augmentation electrons   1083.7139634040316     
 soft         electrons   0.0000000000000000     
 augmentation electrons   1083.7139634040316     
 soft         electrons   0.0000000000000000     
 augmentation electrons   1083.7139634040316     
 soft         electrons   0.0000000000000000     
 augmentation electrons   1083.7139634040316     
 soft         electrons   0.0000000000000000     
 augmentation electrons   1083.7139634040316     
 soft         electrons   0.0000000000000000     
 augmentation electrons   1083.7139634040316     
 soft         electrons   0.0000000000000000     
 augmentation electrons   1083.7139634040316     
 soft         electrons   0.0000000000000000     
 augmentation electrons   1083.7139634040316     
 soft         electrons   0.0000000000000000     
 augmentation electrons   1083.7139634040316     
 soft         electrons   0.0000000000000000     
 augmentation electrons   1083.7139634040316     
 soft         electrons   0.0000000000000000     
 augmentation electrons   1083.7139634040316     
 soft         electrons   0.0000000000000000     
 augmentation electrons   1083.7139634040316     
 soft         electrons   0.0000000000000000     
 augmentation electrons   1083.7139634040316     
 soft         electrons   0.0000000000000000     
 augmentation electrons   1083.7139634040316     
 soft         electrons   0.0000000000000000     
 augmentation electrons   1083.7139634040316     
 soft         electrons   0.0000000000000000     
 augmentation electrons   1083.7139634040316     
 soft         electrons   0.0000000000000000     
 augmentation electrons   1083.7139634040316     
 soft         electrons   0.0000000000000000     
 augmentation electrons   1083.7139634040316     
 soft         electrons   0.0000000000000000     
 augmentation electrons   1083.7139634040316     
 soft         electrons   0.0000000000000000     
 augmentation electrons   1083.7139634040316     
 soft         electrons   0.0000000000000000     
 augmentation electrons   1083.7139634040316     
 soft         electrons   0.0000000000000000     
 augmentation electrons   1083.7139634040316     
 augmentation electrons   1083.7139634040316     
 soft         electrons   0.0000000000000000     
 augmentation electrons   1083.7139634040316     
 soft         electrons   0.0000000000000000     
 augmentation electrons   1083.7139634040316     
 soft         electrons   0.0000000000000000     
 augmentation electrons   1083.7139634040316     
 soft         electrons   0.0000000000000000     
 augmentation electrons   1083.7139634040316     
 soft         electrons   0.0000000000000000     
 augmentation electrons   1083.7139634040316     
 soft         electrons   0.0000000000000000     
 augmentation electrons   1083.7139634040316     
 soft         electrons   0.0000000000000000     
 augmentation electrons   1083.7139634040316     
 soft         electrons   0.0000000000000000     
 soft         electrons   0.0000000000000000     
 total        electrons   1083.7139634040316     
 total        electrons   1083.7139634040316     
 total        electrons   1083.7139634040316     
 total        electrons   1083.7139634040316     
 total        electrons   1083.7139634040316     
 total        electrons   1083.7139634040316     
 total        electrons   1083.7139634040316     
 total        electrons   1083.7139634040316     
 total        electrons   1083.7139634040316     
 total        electrons   1083.7139634040316     
 total        electrons   1083.7139634040316     
 total        electrons   1083.7139634040316     
 total        electrons   1083.7139634040316     
 total        electrons   1083.7139634040316     
 total        electrons   1083.7139634040316     
 total        electrons   1083.7139634040316     
 total        electrons   1083.7139634040316     
 total        electrons   1083.7139634040316     
 total        electrons   1083.7139634040316     
 total        electrons   1083.7139634040316     
 total        electrons   1083.7139634040316     
 total        electrons   1083.7139634040316     
 total        electrons   1083.7139634040316     
 total        electrons   1083.7139634040316     
 total        electrons   1083.7139634040316     
 total        electrons   1083.7139634040316     
 total        electrons   1083.7139634040316     
 total        electrons   1083.7139634040316     
 total        electrons   1083.7139634040316     
 total        electrons   1083.7139634040316     
 total        electrons   1083.7139634040316     
 total        electrons   1083.7139634040316     
 total        electrons   1083.7139634040316     
 total        electrons   1083.7139634040316     
 total        electrons   1083.7139634040316     
 total        electrons   1083.7139634040316     
 total        electrons   1083.7139634040316     
 total        electrons   1083.7139634040316     
 total        electrons   1083.7139634040316     
 total        electrons   1083.7139634040316     
 total        electrons   1083.7139634040316     
 total        electrons   1083.7139634040316     
 total        electrons   1083.7139634040316     
 total        electrons   1083.7139634040316     
 total        electrons   1083.7139634040316     
 total        electrons   1083.7139634040316     
 total        electrons   1083.7139634040316     
 total        electrons   1083.7139634040316     
 total        electrons   1083.7139634040316     
 total        electrons   1083.7139634040316     
 total        electrons   1083.7139634040316     
 total        electrons   1083.7139634040316     
 total        electrons   1083.7139634040316     
 total        electrons   1083.7139634040316     
 total        electrons   1083.7139634040316     
 total        electrons   1083.7139634040316     
 total        electrons   1083.7139634040316     
 total        electrons   1083.7139634040316     
 total        electrons   1083.7139634040316     
 total        electrons   1083.7139634040316     
 total        electrons   1083.7139634040316     
 total        electrons   1083.7139634040316     
 total        electrons   1083.7139634040316     
 total        electrons   1083.7139634040316     
 total        electrons   1083.7139634040316     
 total        electrons   1083.7139634040316     
 total        electrons   1083.7139634040316     
 total        electrons   1083.7139634040316     
 total        electrons   1083.7139634040316     
 total        electrons   1083.7139634040316     
 total        electrons   1083.7139634040316     
 total        electrons   1083.7139634040316     
 entering main loop
       N       E                     dE             d eps       ncg     rms          rms(c)
DAV:   1     0.229910216666E+04    0.22991E+04   -0.95136E+04  8096   0.123E+03
DAV:   2    -0.188032953891E+03   -0.24871E+04   -0.23106E+04  9344   0.300E+02
DAV:   3    -0.594882587801E+03   -0.40685E+03   -0.38720E+03 11424   0.141E+02
DAV:   4    -0.628104646238E+03   -0.33222E+02   -0.31838E+02 13032   0.451E+01
DAV:   5    -0.630010149582E+03   -0.19055E+01   -0.18468E+01 13720   0.105E+01    0.136E+02
RMM:   6    -0.578549768868E+03    0.51460E+02   -0.11193E+03 13096   0.894E+01    0.691E+01
RMM:   7    -0.631726802152E+03   -0.53177E+02   -0.38234E+02  9298   0.753E+01    0.505E+01
RMM:   8    -0.573101038762E+03    0.58626E+02   -0.14101E+02 11062   0.250E+01    0.405E+01
RMM:   9    -0.542667839142E+03    0.30433E+02   -0.71790E+01 12345   0.180E+01    0.257E+01
RMM:  10    -0.530027297926E+03    0.12641E+02   -0.21363E+01 10112   0.131E+01    0.205E+01
RMM:  11    -0.527702379809E+03    0.23249E+01   -0.88035E+00  9521   0.100E+01    0.163E+01
RMM:  12    -0.527851873840E+03   -0.14949E+00   -0.57065E+00 12970   0.239E+00    0.149E+01
RMM:  13    -0.527802072585E+03    0.49801E-01   -0.32289E-01 12758   0.693E-01    0.148E+01
RMM:  14    -0.527852886735E+03   -0.50814E-01   -0.90301E-02 13010   0.253E-01    0.149E+01
RMM:  15    -0.527511598944E+03    0.34129E+00   -0.30151E+00 10681   0.472E+00    0.120E+01
RMM:  16    -0.526740485366E+03    0.77111E+00   -0.20852E+00  9663   0.444E+00    0.687E+00
RMM:  17    -0.526731712377E+03    0.87730E-02   -0.14732E+00 10931   0.280E+00    0.634E+00
RMM:  18    -0.526358979987E+03    0.37273E+00   -0.46394E-01 11111   0.180E+00    0.413E+00
RMM:  19    -0.526226706773E+03    0.13227E+00   -0.53130E-01 12390   0.143E+00    0.281E+00
RMM:  20    -0.526160342852E+03    0.66364E-01   -0.28959E-01 12153   0.111E+00    0.175E+00
RMM:  21    -0.526132451714E+03    0.27891E-01   -0.17865E-01 12454   0.850E-01    0.812E-01
RMM:  22    -0.526128924005E+03    0.35277E-02   -0.38113E-02 10748   0.530E-01    0.779E-01
RMM:  23    -0.526121575508E+03    0.73485E-02   -0.19620E-02 10199   0.399E-01    0.491E-01
RMM:  24    -0.526121915747E+03   -0.34024E-03   -0.11981E-02 12431   0.183E-01    0.356E-01
RMM:  25    -0.526121647449E+03    0.26830E-03   -0.66891E-03 12127   0.166E-01    0.383E-01
RMM:  26    -0.526119924027E+03    0.17234E-02   -0.18965E-03 11447   0.110E-01    0.226E-01
RMM:  27    -0.526119299011E+03    0.62502E-03   -0.17632E-03 12318   0.795E-02    0.121E-01
RMM:  28    -0.526119733148E+03   -0.43414E-03   -0.10317E-03 11255   0.757E-02    0.154E-01
RMM:  29    -0.526120015134E+03   -0.28199E-03   -0.14999E-03 12189   0.773E-02    0.818E-02
RMM:  30    -0.526120468901E+03   -0.45377E-03   -0.31476E-04 10907   0.309E-02    0.604E-02
RMM:  31    -0.526120764510E+03   -0.29561E-03   -0.25079E-04 11133   0.277E-02    0.427E-02
RMM:  32    -0.526120843255E+03   -0.78745E-04   -0.81799E-05 11328   0.143E-02    0.396E-02
RMM:  33    -0.526120899621E+03   -0.56366E-04   -0.45635E-05 10786   0.112E-02    0.374E-02
RMM:  34    -0.526120941877E+03   -0.42256E-04   -0.23878E-05 10180   0.107E-02    0.109E-02
RMM:  35    -0.526121008220E+03   -0.66343E-04   -0.20595E-05 10020   0.811E-03    0.121E-02
RMM:  36    -0.526121095948E+03   -0.87728E-04   -0.15695E-05  9131   0.799E-03    0.745E-03
RMM:  37    -0.526121161660E+03   -0.65712E-04   -0.38700E-06  7393   0.403E-03    0.622E-03
RMM:  38    -0.526121208265E+03   -0.46605E-04   -0.26990E-06  7076   0.439E-03    0.567E-03
RMM:  39    -0.526121275075E+03   -0.66811E-04   -0.59783E-06  7587   0.379E-03    0.476E-03
RMM:  40    -0.526121304866E+03   -0.29790E-04   -0.42712E-06  7391   0.465E-03    0.328E-03
RMM:  41    -0.526121323608E+03   -0.18742E-04   -0.19788E-06  6777   0.331E-03    0.269E-03
RMM:  42    -0.526121325921E+03   -0.23133E-05   -0.49605E-07  5272   0.195E-03    0.104E-03
RMM:  43    -0.526121327623E+03   -0.17014E-05   -0.30099E-07  4696   0.136E-03    0.127E-03
RMM:  44    -0.526121328557E+03   -0.93417E-06   -0.17374E-07  4238   0.116E-03
   1 F= -.52612133E+03 E0= -.52611520E+03  d E =-.183808E-01
 augmentation electrons   27.725655396571995     
 soft         electrons   238.38929487095081     
 augmentation electrons   27.725655396571995     
 soft         electrons   238.38929487095081     
 augmentation electrons   27.725655396571995     
 soft         electrons   238.38929487095081     
 augmentation electrons   27.725655396571995     
 soft         electrons   238.38929487095081     
 augmentation electrons   27.725655396571995     
 soft         electrons   238.38929487095081     
 augmentation electrons   27.725655396571995     
 soft         electrons   238.38929487095081     
 augmentation electrons   27.725655396571995     
 soft         electrons   238.38929487095081     
 augmentation electrons   27.725655396571995     
 soft         electrons   238.38929487095081     
 augmentation electrons   27.725655396571995     
 soft         electrons   238.38929487095081     
 augmentation electrons   27.725655396571995     
 soft         electrons   238.38929487095081     
 augmentation electrons   27.725655396571995     
 soft         electrons   238.38929487095081     
 augmentation electrons   27.725655396571995     
 soft         electrons   238.38929487095081     
 augmentation electrons   27.725655396571995     
 soft         electrons   238.38929487095081     
 augmentation electrons   27.725655396571995     
 soft         electrons   238.38929487095081     
 augmentation electrons   27.725655396571995     
 soft         electrons   238.38929487095081     
 augmentation electrons   27.725655396571995     
 soft         electrons   238.38929487095081     
 augmentation electrons   27.725655396571995     
 soft         electrons   238.38929487095081     
 augmentation electrons   27.725655396571995     
 soft         electrons   238.38929487095081     
 augmentation electrons   27.725655396571995     
 soft         electrons   238.38929487095081     
 augmentation electrons   27.725655396571995     
 soft         electrons   238.38929487095081     
 augmentation electrons   27.725655396571995     
 soft         electrons   238.38929487095081     
 augmentation electrons   27.725655396571995     
 soft         electrons   238.38929487095081     
 augmentation electrons   27.725655396571995     
 soft         electrons   238.38929487095081     
 augmentation electrons   27.725655396571995     
 soft         electrons   238.38929487095081     
 augmentation electrons   27.725655396571995     
 soft         electrons   238.38929487095081     
 augmentation electrons   27.725655396571995     
 soft         electrons   238.38929487095081     
 augmentation electrons   27.725655396571995     
 soft         electrons   238.38929487095081     
 augmentation electrons   27.725655396571995     
 soft         electrons   238.38929487095081     
 augmentation electrons   27.725655396571995     
 soft         electrons   238.38929487095081     
 augmentation electrons   27.725655396571995     
 soft         electrons   238.38929487095081     
 augmentation electrons   27.725655396571995     
 soft         electrons   238.38929487095081     
 augmentation electrons   27.725655396571995     
 soft         electrons   238.38929487095081     
 augmentation electrons   27.725655396571995     
 soft         electrons   238.38929487095081     
 augmentation electrons   27.725655396571995     
 soft         electrons   238.38929487095081     
 augmentation electrons   27.725655396571995     
 soft         electrons   238.38929487095081     
 augmentation electrons   27.725655396571995     
 soft         electrons   238.38929487095081     
 augmentation electrons   27.725655396571995     
 soft         electrons   238.38929487095081     
 augmentation electrons   27.725655396571995     
 soft         electrons   238.38929487095081     
 augmentation electrons   27.725655396571995     
 soft         electrons   238.38929487095081     
 augmentation electrons   27.725655396571995     
 soft         electrons   238.38929487095081     
 augmentation electrons   27.725655396571995     
 soft         electrons   238.38929487095081     
 augmentation electrons   27.725655396571995     
 soft         electrons   238.38929487095081     
 augmentation electrons   27.725655396571995     
 soft         electrons   238.38929487095081     
 augmentation electrons   27.725655396571995     
 soft         electrons   238.38929487095081     
 augmentation electrons   27.725655396571995     
 soft         electrons   238.38929487095081     
 augmentation electrons   27.725655396571995     
 soft         electrons   238.38929487095081     
 augmentation electrons   27.725655396571995     
 soft         electrons   238.38929487095081     
 augmentation electrons   27.725655396571995     
 soft         electrons   238.38929487095081     
 augmentation electrons   27.725655396571995     
 soft         electrons   238.38929487095081     
 augmentation electrons   27.725655396571995     
 soft         electrons   238.38929487095081     
 augmentation electrons   27.725655396571995     
 soft         electrons   238.38929487095081     
 augmentation electrons   27.725655396571995     
 soft         electrons   238.38929487095081     
 augmentation electrons   27.725655396571995     
 soft         electrons   238.38929487095081     
 augmentation electrons   27.725655396571995     
 soft         electrons   238.38929487095081     
 augmentation electrons   27.725655396571995     
 soft         electrons   238.38929487095081     
 augmentation electrons   27.725655396571995     
 soft         electrons   238.38929487095081     
 augmentation electrons   27.725655396571995     
 soft         electrons   238.38929487095081     
 augmentation electrons   27.725655396571995     
 soft         electrons   238.38929487095081     
 augmentation electrons   27.725655396571995     
 soft         electrons   238.38929487095081     
 augmentation electrons   27.725655396571995     
 soft         electrons   238.38929487095081     
 augmentation electrons   27.725655396571995     
 soft         electrons   238.38929487095081     
 augmentation electrons   27.725655396571995     
 soft         electrons   238.38929487095081     
 augmentation electrons   27.725655396571995     
 soft         electrons   238.38929487095081     
 augmentation electrons   27.725655396571995     
 soft         electrons   238.38929487095081     
 augmentation electrons   27.725655396571995     
 soft         electrons   238.38929487095081     
 augmentation electrons   27.725655396571995     
 soft         electrons   238.38929487095081     
 augmentation electrons   27.725655396571995     
 soft         electrons   238.38929487095081     
 augmentation electrons   27.725655396571995     
 soft         electrons   238.38929487095081     
 augmentation electrons   27.725655396571995     
 soft         electrons   238.38929487095081     
 augmentation electrons   27.725655396571995     
 soft         electrons   238.38929487095081     
 augmentation electrons   27.725655396571995     
 soft         electrons   238.38929487095081     
 augmentation electrons   27.725655396571995     
 soft         electrons   238.38929487095081     
 total        electrons   266.11495026752277     
 total        electrons   266.11495026752277     
 total        electrons   266.11495026752277     
 total        electrons   266.11495026752277     
 total        electrons   266.11495026752277     
 total        electrons   266.11495026752277     
 total        electrons   266.11495026752277     
 total        electrons   266.11495026752277     
 total        electrons   266.11495026752277     
 total        electrons   266.11495026752277     
 total        electrons   266.11495026752277     
 total        electrons   266.11495026752277     
 total        electrons   266.11495026752277     
 total        electrons   266.11495026752277     
 total        electrons   266.11495026752277     
 total        electrons   266.11495026752277     
 total        electrons   266.11495026752277     
 total        electrons   266.11495026752277     
 total        electrons   266.11495026752277     
 total        electrons   266.11495026752277     
 total        electrons   266.11495026752277     
 total        electrons   266.11495026752277     
 total        electrons   266.11495026752277     
 total        electrons   266.11495026752277     
 total        electrons   266.11495026752277     
 total        electrons   266.11495026752277     
 total        electrons   266.11495026752277     
 total        electrons   266.11495026752277     
 total        electrons   266.11495026752277     
 total        electrons   266.11495026752277     
 total        electrons   266.11495026752277     
 total        electrons   266.11495026752277     
 total        electrons   266.11495026752277     
 total        electrons   266.11495026752277     
 total        electrons   266.11495026752277     
 total        electrons   266.11495026752277     
 total        electrons   266.11495026752277     
 total        electrons   266.11495026752277     
 total        electrons   266.11495026752277     
 total        electrons   266.11495026752277     
 total        electrons   266.11495026752277     
 total        electrons   266.11495026752277     
 total        electrons   266.11495026752277     
 total        electrons   266.11495026752277     
 total        electrons   266.11495026752277     
 total        electrons   266.11495026752277     
 total        electrons   266.11495026752277     
 total        electrons   266.11495026752277     
 total        electrons   266.11495026752277     
 total        electrons   266.11495026752277     
 total        electrons   266.11495026752277     
 total        electrons   266.11495026752277     
 total        electrons   266.11495026752277     
 total        electrons   266.11495026752277     
 total        electrons   266.11495026752277     
 total        electrons   266.11495026752277     
 total        electrons   266.11495026752277     
 total        electrons   266.11495026752277     
 total        electrons   266.11495026752277     
 total        electrons   266.11495026752277     
 total        electrons   266.11495026752277     
 total        electrons   266.11495026752277     
 total        electrons   266.11495026752277     
 total        electrons   266.11495026752277     
 total        electrons   266.11495026752277     
 total        electrons   266.11495026752277     
 total        electrons   266.11495026752277     
 total        electrons   266.11495026752277     
 total        electrons   266.11495026752277     
 total        electrons   266.11495026752277     
 total        electrons   266.11495026752277     
 total        electrons   266.11495026752277     
Note: The following floating-point exceptions are signalling: IEEE_OVERFLOW_FLAG
Note: The following floating-point exceptions are signalling: IEEE_OVERFLOW_FLAG
Note: The following floating-point exceptions are signalling: IEEE_OVERFLOW_FLAG
Note: The following floating-point exceptions are signalling: IEEE_OVERFLOW_FLAG
Note: The following floating-point exceptions are signalling: IEEE_OVERFLOW_FLAG
Note: The following floating-point exceptions are signalling: IEEE_OVERFLOW_FLAG
Note: The following floating-point exceptions are signalling: IEEE_INVALID_FLAG IEEE_OVERFLOW_FLAG
Note: The following floating-point exceptions are signalling: IEEE_OVERFLOW_FLAG
Note: The following floating-point exceptions are signalling: IEEE_OVERFLOW_FLAG
Note: The following floating-point exceptions are signalling: IEEE_OVERFLOW_FLAG
Note: The following floating-point exceptions are signalling: IEEE_OVERFLOW_FLAG
Note: The following floating-point exceptions are signalling: IEEE_OVERFLOW_FLAG
Note: The following floating-point exceptions are signalling: IEEE_OVERFLOW_FLAG
Note: The following floating-point exceptions are signalling: IEEE_OVERFLOW_FLAG
Note: The following floating-point exceptions are signalling: IEEE_OVERFLOW_FLAG
Note: The following floating-point exceptions are signalling: IEEE_OVERFLOW_FLAG
Note: The following floating-point exceptions are signalling: IEEE_OVERFLOW_FLAG
Note: The following floating-point exceptions are signalling: IEEE_OVERFLOW_FLAG
Note: The following floating-point exceptions are signalling: IEEE_OVERFLOW_FLAG
Note: The following floating-point exceptions are signalling: IEEE_OVERFLOW_FLAG
Note: The following floating-point exceptions are signalling: IEEE_OVERFLOW_FLAG
Note: The following floating-point exceptions are signalling: IEEE_OVERFLOW_FLAG
Note: The following floating-point exceptions are signalling: IEEE_OVERFLOW_FLAG
Note: The following floating-point exceptions are signalling: IEEE_OVERFLOW_FLAG
Note: The following floating-point exceptions are signalling: IEEE_OVERFLOW_FLAG
Note: The following floating-point exceptions are signalling: IEEE_OVERFLOW_FLAG
Note: The following floating-point exceptions are signalling: IEEE_OVERFLOW_FLAG
Note: The following floating-point exceptions are signalling: IEEE_OVERFLOW_FLAG
Note: The following floating-point exceptions are signalling: IEEE_OVERFLOW_FLAG
Note: The following floating-point exceptions are signalling: IEEE_OVERFLOW_FLAG
Note: The following floating-point exceptions are signalling: IEEE_OVERFLOW_FLAG
Note: The following floating-point exceptions are signalling: IEEE_OVERFLOW_FLAG
Note: The following floating-point exceptions are signalling: IEEE_OVERFLOW_FLAG
Note: The following floating-point exceptions are signalling: IEEE_OVERFLOW_FLAG
Note: The following floating-point exceptions are signalling: IEEE_OVERFLOW_FLAG
Note: The following floating-point exceptions are signalling: IEEE_OVERFLOW_FLAG
Note: The following floating-point exceptions are signalling: IEEE_OVERFLOW_FLAG
Note: The following floating-point exceptions are signalling: IEEE_OVERFLOW_FLAG
Note: The following floating-point exceptions are signalling: IEEE_OVERFLOW_FLAG
Note: The following floating-point exceptions are signalling: IEEE_OVERFLOW_FLAG
Note: The following floating-point exceptions are signalling: IEEE_OVERFLOW_FLAG
Note: The following floating-point exceptions are signalling: IEEE_OVERFLOW_FLAG
Note: The following floating-point exceptions are signalling: IEEE_OVERFLOW_FLAG
Note: The following floating-point exceptions are signalling: IEEE_OVERFLOW_FLAG
Note: The following floating-point exceptions are signalling: IEEE_OVERFLOW_FLAG
Note: The following floating-point exceptions are signalling: IEEE_OVERFLOW_FLAG
Note: The following floating-point exceptions are signalling: IEEE_OVERFLOW_FLAG
Note: The following floating-point exceptions are signalling: IEEE_OVERFLOW_FLAG
Note: The following floating-point exceptions are signalling: IEEE_OVERFLOW_FLAG
Note: The following floating-point exceptions are signalling: IEEE_OVERFLOW_FLAG
Note: The following floating-point exceptions are signalling: IEEE_OVERFLOW_FLAG
Note: The following floating-point exceptions are signalling: IEEE_OVERFLOW_FLAG
Note: The following floating-point exceptions are signalling: IEEE_OVERFLOW_FLAG
Note: The following floating-point exceptions are signalling: IEEE_OVERFLOW_FLAG
Note: The following floating-point exceptions are signalling: IEEE_OVERFLOW_FLAG
Note: The following floating-point exceptions are signalling: IEEE_OVERFLOW_FLAG
Note: The following floating-point exceptions are signalling: IEEE_OVERFLOW_FLAG
Note: The following floating-point exceptions are signalling: IEEE_OVERFLOW_FLAG
Note: The following floating-point exceptions are signalling: IEEE_OVERFLOW_FLAG
Note: The following floating-point exceptions are signalling: IEEE_OVERFLOW_FLAG
Note: The following floating-point exceptions are signalling: IEEE_OVERFLOW_FLAG
Note: The following floating-point exceptions are signalling: IEEE_OVERFLOW_FLAG
Note: The following floating-point exceptions are signalling: IEEE_OVERFLOW_FLAG
Note: The following floating-point exceptions are signalling: IEEE_OVERFLOW_FLAG
Note: The following floating-point exceptions are signalling: IEEE_OVERFLOW_FLAG
Note: The following floating-point exceptions are signalling: IEEE_OVERFLOW_FLAG
Note: The following floating-point exceptions are signalling: IEEE_OVERFLOW_FLAG
Note: The following floating-point exceptions are signalling: IEEE_OVERFLOW_FLAG
Note: The following floating-point exceptions are signalling: IEEE_OVERFLOW_FLAG
Note: The following floating-point exceptions are signalling: IEEE_OVERFLOW_FLAG
Note: The following floating-point exceptions are signalling: IEEE_OVERFLOW_FLAG
Note: The following floating-point exceptions are signalling: IEEE_OVERFLOW_FLAG
