    3    3   60    1
  0.8144830E+01  0.3039000E-09  0.3039000E-09  0.3055000E-09  0.5000000E-15
   1.0000000000000000E-004
  CAR 
 Name                                    
     12    216     10

  0.3742002E-15  0.3742002E-15  0.3742002E-15  0.2962963E-03
    1       -5.423881   1.000000
    2        4.607763   1.000000
    3        4.968006   1.000000
    4        4.968008   1.000000
    5        6.158440   1.000000
    6       10.039560   0.162948
    7       10.039561   0.162942
    8       12.510252  -0.000000
    9       14.791610   0.000000
   10       14.791615   0.000000

  0.6666667E-01  0.3766815E-15  0.3742002E-15  0.1777778E-02
    1       -5.331400   1.000000
    2        4.677995   1.000000
    3        4.751423   1.000000
    4        5.011583   1.000000
    5        5.943427   1.000000
    6        9.994842   0.503749
    7       10.339072  -0.000007
    8       12.021403  -0.000000
    9       12.116358  -0.000000
   10       15.199300   0.000000

  0.1333333E+00  0.3754153E-15  0.3742002E-15  0.1777778E-02
    1       -5.058566   1.000000
    2        4.150644   1.000000
    3        4.881237   1.000000
    4        5.123264   1.000000
    5        5.456534   1.000000
    6        9.871049   1.035411
    7       11.045306  -0.000000
    8       11.160233  -0.000000
    9       11.506071  -0.000000
   10       15.826047   0.000000

  0.2000000E+00  0.3870416E-15  0.3742002E-15  0.1777778E-02
    1       -4.618476   1.000000
    2        3.337718   1.000000
    3        4.915548   1.000000
    4        5.079942   1.000000
    5        5.251753   1.000000
    6        9.695369   1.000094
    7       10.494250  -0.000000
    8       11.088944  -0.000000
    9       11.811047  -0.000000
   10       16.260818   0.000000

  0.2666667E+00  0.4120044E-15  0.3742002E-15  0.1777778E-02
    1       -4.030703   1.000000
    2        2.417768   1.000000
    3        4.431053   1.000000
    4        5.116298   1.000000
    5        5.339320   1.000000
    6        9.502589   1.000000
    7       10.332045  -0.000010
    8       10.958642  -0.000000
    9       12.269826  -0.000000
   10       16.546050   0.000000

  0.3333333E+00  0.4025434E-15  0.3742002E-15  0.1777778E-02
    1       -3.319868   1.000000
    2        1.453401   1.000000
    3        4.049065   1.000000
    4        4.936955   1.000000
    5        5.360847   1.000000
    6        9.326260   1.000000
    7       10.758313  -0.000000
    8       11.082025  -0.000000
    9       12.258384  -0.000000
   10       16.600595   0.000000

  0.4000000E+00  0.3732510E-15  0.3742002E-15  0.1777778E-02
    1       -2.519131   1.000000
    2        0.484353   1.000000
    3        3.788699   1.000000
    4        4.684728   1.000000
    5        5.338747   1.000000
    6        9.193453   1.000000
    7       11.326169  -0.000000
    8       11.552943  -0.000000
    9       12.037750  -0.000000
   10       16.560800   0.000000

  0.4666667E+00  0.3915456E-15  0.3742002E-15  0.1777778E-02
    1       -1.720591   1.000000
    2       -0.398226   1.000000
    3        3.657267   1.000000
    4        4.519972   1.000000
    5        5.314106   1.000000
    6        9.122493   1.000000
    7       11.513423  -0.000000
    8       11.874337  -0.000000
    9       12.260691  -0.000000
   10       16.388738   0.000000

  0.6666667E-01  0.6666667E-01  0.3742002E-15  0.1777778E-02
    1       -5.148693   1.000000
    2        4.354973   1.000000
    3        4.794183   1.000000
    4        5.097880   1.000000
    5        5.601100   1.000000
    6        9.885007   1.032769
    7       10.862199  -0.000000
    8       11.426735  -0.000000
    9       11.615018  -0.000000
   10       15.761366   0.000000

  0.1333333E+00  0.6666667E-01  0.3742002E-15  0.3555556E-02
    1       -4.791945   1.000000
    2        3.688150   1.000000
    3        4.861086   1.000000
    4        5.114390   1.000000
    5        5.317069   1.000000
    6        9.666554   1.000017
    7       10.673779  -0.000000
    8       11.205218  -0.000000
    9       11.667441  -0.000000
   10       16.313791   0.000000

  0.2000000E+00  0.6666667E-01  0.3742002E-15  0.3555556E-02
    1       -4.277109   1.000000
    2        2.860139   1.000000
    3        4.635440   1.000000
    4        4.770102   1.000000
    5        5.615313   1.000000
    6        9.384724   1.000000
    7       10.146136  -0.027270
    8       11.111640  -0.000000
    9       12.416479  -0.000000
   10       16.438813   0.000000

  0.2666667E+00  0.6666667E-01  0.3742002E-15  0.3555556E-02
    1       -3.625620   1.000000
    2        1.948499   1.000000
    3        4.234788   1.000000
    4        4.540996   1.000000
    5        5.820748   1.000000
    6        9.088277   1.000000
    7       10.080865  -0.002977
    8       11.333055  -0.000000
    9       12.760473   0.000000
   10       16.614682   0.000000

  0.3333333E+00  0.6666667E-01  0.3742002E-15  0.3555556E-02
    1       -2.864401   1.000000
    2        0.997640   1.000000
    3        3.940832   1.000000
    4        4.262804   1.000000
    5        5.867369   1.000000
    6        8.827620   1.000000
    7       10.473433  -0.000000
    8       11.739664  -0.000000
    9       12.702475  -0.000000
   10       16.789503   0.000000

  0.4000000E+00  0.6666667E-01  0.3742002E-15  0.3555556E-02
    1       -2.038095   1.000000
    2        0.055707   1.000000
    3        3.763181   1.000000
    4        4.045893   1.000000
    5        5.835109   1.000000
    6        8.648894   1.000000
    7       11.033532  -0.000000
    8       12.118472  -0.000000
    9       12.551685  -0.000000
   10       16.735182   0.000000

  0.4666667E+00  0.6666667E-01  0.3742002E-15  0.1777778E-02
    1       -1.436763   1.000000
    2       -0.584643   1.000000
    3        3.703928   1.000000
    4        3.965401   1.000000
    5        5.814008   1.000000
    6        8.585261   1.000000
    7       11.311004  -0.000000
    8       12.268671  -0.000000
    9       12.486724  -0.000000
   10       16.686860   0.000000

  0.1333333E+00  0.1333333E+00  0.3742002E-15  0.1777778E-02
    1       -4.359759   1.000000
    2        3.075539   1.000000
    3        4.568001   1.000000
    4        4.726156   1.000000
    5        5.722951   1.000000
    6        9.254360   1.000000
    7       10.066089   0.037351
    8       11.197302  -0.000000
    9       12.577920  -0.000000
   10       16.374233   0.000000

  0.2000000E+00  0.1333333E+00  0.3742002E-15  0.3555556E-02
    1       -3.778840   1.000000
    2        2.349632   1.000000
    3        4.122068   1.000000
    4        4.386196   1.000000
    5        6.186860   1.000000
    6        8.748714   1.000000
    7        9.606902   1.000000
    8       11.522380  -0.000000
    9       13.440177   0.000000
   10       16.150435   0.000000

  0.2666667E+00  0.1333333E+00  0.3742002E-15  0.3555556E-02
    1       -3.071102   1.000000
    2        1.524105   1.000000
    3        3.667200   1.000000
    4        4.133664   1.000000
    5        6.521690   1.000000
    6        8.255307   1.000000
    7        9.573407   1.000000
    8       11.950165  -0.000000
    9       13.835415   0.000000
   10       16.590327   0.000000

  0.3333333E+00  0.1333333E+00  0.3742002E-15  0.3555556E-02
    1       -2.265909   1.000000
    2        0.625302   1.000000
    3        3.319550   1.000000
    4        3.975251   1.000000
    5        6.621624   1.000000
    6        7.865513   1.000000
    7       10.032919   0.205144
    8       12.166562  -0.000000
    9       13.830423   0.000000
   10       17.351167   0.000000

  0.4000000E+00  0.1333333E+00  0.3742002E-15  0.3555556E-02
    1       -1.436089   1.000000
    2       -0.259025   1.000000
    3        3.136470   1.000000
    4        3.901399   1.000000
    5        6.609609   1.000000
    6        7.650427   1.000000
    7       10.650389  -0.000000
    8       12.018416  -0.000000
    9       13.765057   0.000000
   10       17.513897   0.000000

  0.2000000E+00  0.2000000E+00  0.3742002E-15  0.1777778E-02
    1       -3.139814   1.000000
    2        1.808380   1.000000
    3        3.357345   1.000000
    4        4.227040   1.000000
    5        6.844785   1.000000
    6        8.011752   1.000000
    7        9.155653   1.000000
    8       12.024750  -0.000000
    9       14.579771   0.000000
   10       16.008061   0.000000

  0.2666667E+00  0.2000000E+00  0.3742002E-15  0.3555556E-02
    1       -2.381714   1.000000
    2        1.161201   1.000000
    3        2.697789   1.000000
    4        4.170309   1.000000
    5        7.337308   1.000000
    6        7.364447   1.000000
    7        9.109920   1.000000
    8       12.212410  -0.000000
    9       15.167615   0.000000
   10       16.534471   0.000000

  0.3333333E+00  0.2000000E+00  0.3742002E-15  0.3555556E-02
    1       -1.537105   1.000000
    2        0.352935   1.000000
    3        2.306874   1.000000
    4        4.184729   1.000000
    5        6.852242   1.000000
    6        7.499646   1.000000
    7        9.667700   1.000018
    8       11.872325  -0.000000
    9       15.177340   0.000000
   10       17.524540   0.000000

  0.4000000E+00  0.2000000E+00  0.3742002E-15  0.1777778E-02
    1       -0.819339   1.000000
    2       -0.365522   1.000000
    3        2.185469   1.000000
    4        4.203581   1.000000
    5        6.671613   1.000000
    6        7.492572   1.000000
    7       10.176972  -0.013792
    8       11.459149  -0.000000
    9       15.153353   0.000000
   10       17.992233   0.000000

  0.2666667E+00  0.2666667E+00  0.3742002E-15  0.1777778E-02
    1       -1.579071   1.000000
    2        0.801587   1.000000
    3        1.791875   1.000000
    4        4.347037   1.000000
    5        6.510616   1.000000
    6        8.252494   1.000000
    7        8.853651   1.000000
    8       11.830045  -0.000000
    9       16.442922   0.000000
   10       16.540797   0.000000

  0.3333333E+00  0.2666667E+00  0.3742002E-15  0.3555556E-02
    1       -0.700967   1.000000
    2        0.187117   1.000000
    3        1.287677   1.000000
    4        4.582518   1.000000
    5        5.934628   1.000000
    6        8.460202   1.000000
    7        9.424386   1.000000
    8       11.067922  -0.000000
    9       16.433496   0.000000
   10       17.483635   0.000000

  0.3333333E+00  0.3333333E+00  0.3742002E-15  0.5925926E-03
    1        0.086826   1.000000
    2        0.086828   1.000000
    3        0.481557   1.000000
    4        5.169356   1.000000
    5        5.169358   1.000000
    6        9.217753   1.000000
    7        9.217754   1.000000
    8       10.449497  -0.000000
    9       17.227627   0.000000
   10       17.227627   0.000000

  0.3742002E-15  0.3742002E-15  0.6666667E-01  0.5925926E-03
    1       -5.355930   1.000000
    2        4.326457   1.000000
    3        5.021386   1.000000
    4        5.021388   1.000000
    5        6.390628   1.000000
    6        9.831928   1.021521
    7        9.831929   1.021521
    8       12.360072  -0.000000
    9       12.360075  -0.000000
   10       15.764602   0.000000

  0.6666667E-01  0.3766815E-15  0.6666667E-01  0.3555556E-02
    1       -5.264521   1.000000
    2        4.385247   1.000000
    3        4.792985   1.000000
    4        5.059539   1.000000
    5        6.181340   1.000000
    6        9.762739   1.002437
    7       10.100403  -0.029655
    8       12.021583  -0.000000
    9       12.110900  -0.000000
   10       15.391923   0.000000

  0.1333333E+00  0.3754153E-15  0.6666667E-01  0.3555556E-02
    1       -4.994994   1.000000
    2        4.178889   1.000000
    3        4.513003   1.000000
    4        5.152224   1.000000
    5        5.758298   1.000000
    6        9.599384   1.000000
    7       10.487022  -0.000000
    8       11.618931  -0.000000
    9       11.683250  -0.000000
   10       15.820474   0.000000

  0.2000000E+00  0.3870416E-15  0.6666667E-01  0.3555556E-02
    1       -4.560548   1.000000
    2        3.334570   1.000000
    3        4.545433   1.000000
    4        5.243450   1.000000
    5        5.404847   1.000000
    6        9.447714   1.000000
    7       10.287367  -0.000144
    8       11.351594  -0.000000
    9       11.993718  -0.000000
   10       16.003000   0.000000

  0.2666667E+00  0.4120044E-15  0.6666667E-01  0.3555556E-02
    1       -3.980701   1.000000
    2        2.387810   1.000000
    3        4.352600   1.000000
    4        5.191884   1.000000
    5        5.276529   1.000000
    6        9.385455   1.000000
    7       10.217665  -0.003634
    8       11.186869  -0.000000
    9       12.369649  -0.000000
   10       16.172927   0.000000

  0.3333333E+00  0.4025434E-15  0.6666667E-01  0.3555556E-02
    1       -3.279204   1.000000
    2        1.406810   1.000000
    3        4.089128   1.000000
    4        4.951302   1.000000
    5        5.240929   1.000000
    6        9.387824   1.000000
    7       10.603111  -0.000000
    8       11.212985  -0.000000
    9       12.373211  -0.000000
   10       16.778710   0.000000

  0.4000000E+00  0.3732510E-15  0.6666667E-01  0.3555556E-02
    1       -2.485547   1.000000
    2        0.428986   1.000000
    3        3.885916   1.000000
    4        4.691719   1.000000
    5        5.175722   1.000000
    6        9.390876   1.000000
    7       11.147630  -0.000000
    8       11.377992  -0.000000
    9       12.391471  -0.000000
   10       16.578130   0.000000

  0.4666667E+00  0.3915456E-15  0.6666667E-01  0.3555556E-02
    1       -1.672375   1.000000
    2       -0.475297   1.000000
    3        3.780530   1.000000
    4        4.527821   1.000000
    5        5.129128   1.000000
    6        9.384097   1.000000
    7       11.343498  -0.000000
    8       11.529178  -0.000000
    9       12.758118   0.000000
   10       16.226877   0.000000

  0.6666667E-01  0.6666667E-01  0.6666667E-01  0.3555556E-02
    1       -5.084017   1.000000
    2        4.395367   1.000000
    3        4.479172   1.000000
    4        5.077273   1.000000
    5        5.904572   1.000000
    6        9.579797   1.000000
    7       10.528036  -0.000000
    8       11.571676  -0.000000
    9       11.844337  -0.000000
   10       15.853162   0.000000

  0.1333333E+00  0.6666667E-01  0.6666667E-01  0.7111111E-02
    1       -4.731768   1.000000
    2        3.710511   1.000000
    3        4.559802   1.000000
    4        4.964789   1.000000
    5        5.728827   1.000000
    6        9.266088   1.000000
    7       10.704953  -0.000000
    8       11.213784  -0.000000
    9       11.934619  -0.000000
   10       16.218725   0.000000

  0.2000000E+00  0.6666667E-01  0.6666667E-01  0.7111111E-02
    1       -4.223829   1.000000
    2        2.853199   1.000000
    3        4.437111   1.000000
    4        4.767296   1.000000
    5        5.776943   1.000000
    6        8.994470   1.000000
    7       10.427385  -0.000000
    8       11.164293  -0.000000
    9       12.491795  -0.000000
   10       16.133322   0.000000

  0.2666667E+00  0.6666667E-01  0.6666667E-01  0.7111111E-02
    1       -3.581314   1.000000
    2        1.916169   1.000000
    3        4.180442   1.000000
    4        4.542804   1.000000
    5        5.813841   1.000000
    6        8.904516   1.000000
    7       10.362771  -0.000001
    8       11.309789  -0.000000
    9       12.791249   0.000000
   10       16.386483   0.000000

  0.3333333E+00  0.6666667E-01  0.6666667E-01  0.7111111E-02
    1       -2.829459   1.000000
    2        0.950533   1.000000
    3        3.968596   1.000000
    4        4.275393   1.000000
    5        5.738281   1.000000
    6        8.922616   1.000000
    7       10.612708  -0.000000
    8       11.598541  -0.000000
    9       12.802561   0.000000
   10       16.778472   0.000000

  0.4000000E+00  0.6666667E-01  0.6666667E-01  0.7111111E-02
    1       -2.005373   1.000000
    2       -0.002101   1.000000
    3        3.851764   1.000000
    4        4.050521   1.000000
    5        5.634955   1.000000
    6        8.907527   1.000000
    7       11.069830  -0.000000
    8       11.766567  -0.000000
    9       12.881480   0.000000
   10       16.596186   0.000000

  0.4666667E+00  0.6666667E-01  0.6666667E-01  0.3555556E-02
    1       -1.366003   1.000000
    2       -0.684372   1.000000
    3        3.824032   1.000000
    4        3.955778   1.000000
    5        5.591235   1.000000
    6        8.890690   1.000000
    7       11.332998  -0.000000
    8       11.756940  -0.000000
    9       12.983809   0.000000
   10       16.448278   0.000000

  0.1333333E+00  0.1333333E+00  0.6666667E-01  0.3555556E-02
    1       -4.305412   1.000000
    2        3.095953   1.000000
    3        4.387711   1.000000
    4        4.608890   1.000000
    5        6.009314   1.000000
    6        8.709462   1.000000
    7       10.597497  -0.000000
    8       11.113004  -0.000000
    9       12.620077  -0.000000
   10       16.229045   0.000000

  0.2000000E+00  0.1333333E+00  0.6666667E-01  0.7111111E-02
    1       -3.732775   1.000000
    2        2.350695   1.000000
    3        3.941010   1.000000
    4        4.418462   1.000000
    5        6.346874   1.000000
    6        8.246939   1.000000
    7       10.173075  -0.015296
    8       11.483792  -0.000000
    9       13.381551   0.000000
   10       16.023030   0.000000

  0.2666667E+00  0.1333333E+00  0.6666667E-01  0.7111111E-02
    1       -3.035175   1.000000
    2        1.498902   1.000000
    3        3.554484   1.000000
    4        4.218785   1.000000
    5        6.455327   1.000000
    6        8.120806   1.000000
    7        9.972991   0.683572
    8       11.890686  -0.000000
    9       13.761921   0.000000
   10       16.389821   0.000000

  0.3333333E+00  0.1333333E+00  0.6666667E-01  0.7111111E-02
    1       -2.239183   1.000000
    2        0.583525   1.000000
    3        3.275092   1.000000
    4        4.072081   1.000000
    5        6.301342   1.000000
    6        8.183100   1.000000
    7       10.206797  -0.005415
    8       12.073281  -0.000000
    9       13.825649   0.000000
   10       16.904894   0.000000

  0.4000000E+00  0.1333333E+00  0.6666667E-01  0.7111111E-02
    1       -1.400348   1.000000
    2       -0.321015   1.000000
    3        3.127520   1.000000
    4        4.001618   1.000000
    5        6.158002   1.000000
    6        8.181456   1.000000
    7       10.711957  -0.000000
    8       11.921939  -0.000000
    9       13.818833   0.000000
   10       17.089941   0.000000

  0.2000000E+00  0.2000000E+00  0.6666667E-01  0.3555556E-02
    1       -3.103543   1.000000
    2        1.809169   1.000000
    3        3.223471   1.000000
    4        4.281385   1.000000
    5        7.008606   1.000000
    6        7.519239   1.000000
    7        9.719554   1.000340
    8       11.986925  -0.000000
    9       14.413861   0.000000
   10       15.910683   0.000000

  0.2666667E+00  0.2000000E+00  0.6666667E-01  0.7111111E-02
    1       -2.357110   1.000000
    2        1.142685   1.000000
    3        2.631785   1.000000
    4        4.230979   1.000000
    5        6.813226   1.000000
    6        7.727349   1.000000
    7        9.499445   1.000000
    8       12.173075  -0.000000
    9       15.019433   0.000000
   10       16.348156   0.000000

  0.3333333E+00  0.2000000E+00  0.6666667E-01  0.7111111E-02
    1       -1.521971   1.000000
    2        0.317466   1.000000
    3        2.292239   1.000000
    4        4.249372   1.000000
    5        6.359388   1.000000
    6        8.040468   1.000000
    7        9.826337   1.019008
    8       11.853479  -0.000000
    9       15.101090   0.000000
   10       17.167479   0.000000

  0.4000000E+00  0.2000000E+00  0.6666667E-01  0.3555556E-02
    1       -0.765893   1.000000
    2       -0.446841   1.000000
    3        2.186931   1.000000
    4        4.271441   1.000000
    5        6.187069   1.000000
    6        8.078875   1.000000
    7       10.259136  -0.000610
    8       11.464565  -0.000000
    9       15.095334   0.000000
   10       17.550219   0.000000

  0.2666667E+00  0.2666667E+00  0.6666667E-01  0.3555556E-02
    1       -1.568633   1.000000
    2        0.778358   1.000000
    3        1.768984   1.000000
    4        4.385954   1.000000
    5        6.272574   1.000000
    6        8.383069   1.000000
    7        9.205493   1.000000
    8       11.823723  -0.000000
    9       16.309930   0.000000
   10       16.355138   0.000000

  0.3333333E+00  0.2666667E+00  0.6666667E-01  0.7111111E-02
    1       -0.704771   1.000000
    2        0.155419   1.000000
    3        1.299333   1.000000
    4        4.604903   1.000000
    5        5.768326   1.000000
    6        8.723584   1.000000
    7        9.572912   1.000000
    8       11.094426  -0.000000
    9       16.335542   0.000000
   10       17.289849   0.000000

  0.3333333E+00  0.3333333E+00  0.6666667E-01  0.1185185E-02
    1        0.034353   1.000000
    2        0.034355   1.000000
    3        0.566016   1.000000
    4        5.125200   1.000000
    5        5.125203   1.000000
    6        9.400892   1.000000
    7        9.400892   1.000000
    8       10.478798  -0.000000
    9       17.109587   0.000000
   10       17.109588   0.000000

  0.3742002E-15  0.3742002E-15  0.1333333E+00  0.5925926E-03
    1       -5.156242   1.000000
    2        3.711884   1.000000
    3        5.181126   1.000000
    4        5.181128   1.000000
    5        6.872572   1.000000
    6        9.343413   1.000000
    7        9.343415   1.000000
    8       11.938752  -0.000000
    9       11.938755  -0.000000
   10       15.668255   0.000000

  0.6666667E-01  0.3766815E-15  0.1333333E+00  0.3555556E-02
    1       -5.068212   1.000000
    2        3.763232   1.000000
    3        4.934932   1.000000
    4        5.201417   1.000000
    5        6.631709   1.000000
    6        9.245649   1.000000
    7        9.596160   1.000000
    8       11.830811  -0.000000
    9       11.934328  -0.000000
   10       15.968832   0.000000

  0.1333333E+00  0.3754153E-15  0.1333333E+00  0.3555556E-02
    1       -4.809007   1.000000
    2        3.853626   1.000000
    3        4.311095   1.000000
    4        5.233343   1.000000
    5        6.184606   1.000000
    6        9.072585   1.000000
    7        9.884740   1.032893
    8       11.857125  -0.000000
    9       11.888737  -0.000000
   10       15.952419   0.000000

  0.2000000E+00  0.3870416E-15  0.1333333E+00  0.3555556E-02
    1       -4.392321   1.000000
    2        3.281583   1.000000
    3        4.122581   1.000000
    4        5.211443   1.000000
    5        5.751650   1.000000
    6        9.029705   1.000000
    7        9.859882   1.033311
    8       11.785720  -0.000000
    9       12.304424  -0.000000
   10       15.706332   0.000000

  0.2666667E+00  0.4120044E-15  0.1333333E+00  0.3555556E-02
    1       -3.837621   1.000000
    2        2.304240   1.000000
    3        4.183163   1.000000
    4        5.099854   1.000000
    5        5.354599   1.000000
    6        9.209199   1.000000
    7        9.918528   0.981279
    8       11.662200  -0.000000
    9       12.662298  -0.000000
   10       15.702428   0.000000

  0.3333333E+00  0.4025434E-15  0.1333333E+00  0.3555556E-02
    1       -3.166745   1.000000
    2        1.300677   1.000000
    3        4.173697   1.000000
    4        4.935003   1.000000
    5        4.990957   1.000000
    6        9.539963   1.000000
    7       10.241685  -0.001358
    8       11.571174  -0.000000
    9       12.698895  -0.000000
   10       16.152817   0.000000

  0.4000000E+00  0.3732510E-15  0.1333333E+00  0.3555556E-02
    1       -2.401455   1.000000
    2        0.315212   1.000000
    3        4.131996   1.000000
    4        4.697743   1.000000
    5        4.783750   1.000000
    6        9.860666   1.033542
    7       10.591001  -0.000000
    8       11.550711  -0.000000
    9       12.864831   0.000000
   10       16.275212   0.000000

  0.4666667E+00  0.3915456E-15  0.1333333E+00  0.3555556E-02
    1       -1.568269   1.000000
    2       -0.626682   1.000000
    3        4.102526   1.000000
    4        4.532095   1.000000
    5        4.696314   1.000000
    6       10.039127   0.165574
    7       10.719392  -0.000000
    8       11.578456  -0.000000
    9       13.315289   0.000000
   10       15.849150   0.000000

  0.6666667E-01  0.6666667E-01  0.1333333E+00  0.3555556E-02
    1       -4.894567   1.000000
    2        3.847248   1.000000
    3        4.513996   1.000000
    4        5.160776   1.000000
    5        6.370032   1.000000
    6        8.978165   1.000000
    7        9.995122   0.501379
    8       11.649591  -0.000000
    9       12.015463  -0.000000
   10       16.426611   0.000000

  0.1333333E+00  0.6666667E-01  0.1333333E+00  0.7111111E-02
    1       -4.556449   1.000000
    2        3.718448   1.000000
    3        4.020268   1.000000
    4        4.981493   1.000000
    5        6.203002   1.000000
    6        8.620170   1.000000
    7       10.305537  -0.000052
    8       11.560951  -0.000000
    9       12.259415  -0.000000
   10       16.097038   0.000000

  0.2000000E+00  0.6666667E-01  0.1333333E+00  0.7111111E-02
    1       -4.070226   1.000000
    2        2.817465   1.000000
    3        4.069634   1.000000
    4        4.746673   1.000000
    5        6.046225   1.000000
    6        8.492201   1.000000
    7       10.400719  -0.000000
    8       11.540019  -0.000000
    9       12.701600  -0.000000
   10       15.769566   0.000000

  0.2666667E+00  0.6666667E-01  0.1333333E+00  0.7111111E-02
    1       -3.456430   1.000000
    2        1.834960   1.000000
    3        4.051103   1.000000
    4        4.520375   1.000000
    5        5.769484   1.000000
    6        8.716619   1.000000
    7       10.596182  -0.000000
    8       11.479512  -0.000000
    9       12.955841   0.000000
   10       15.911751   0.000000

  0.3333333E+00  0.6666667E-01  0.1333333E+00  0.7111111E-02
    1       -2.736672   1.000000
    2        0.848107   1.000000
    3        3.987360   1.000000
    4        4.320285   1.000000
    5        5.455474   1.000000
    6        9.133381   1.000000
    7       10.869590  -0.000000
    8       11.450203  -0.000000
    9       13.048192   0.000000
   10       16.295217   0.000000

  0.4000000E+00  0.6666667E-01  0.1333333E+00  0.7111111E-02
    1       -1.932611   1.000000
    2       -0.115030   1.000000
    3        3.927757   1.000000
    4        4.183442   1.000000
    5        5.222519   1.000000
    6        9.459918   1.000000
    7       11.120832  -0.000000
    8       11.433365  -0.000000
    9       13.297843   0.000000
   10       16.189752   0.000000

  0.4666667E+00  0.6666667E-01  0.1333333E+00  0.3555556E-02
    1       -1.159153   1.000000
    2       -0.941139   1.000000
    3        3.902018   1.000000
    4        4.138191   1.000000
    5        5.137601   1.000000
    6        9.563936   1.000000
    7       11.262124  -0.000000
    8       11.397013  -0.000000
    9       13.496813   0.000000
   10       15.980511   0.000000

  0.1333333E+00  0.1333333E+00  0.1333333E+00  0.3555556E-02
    1       -4.148390   1.000000
    2        3.154324   1.000000
    3        3.856578   1.000000
    4        4.598891   1.000000
    5        6.526913   1.000000
    6        7.952110   1.000000
    7       10.867108  -0.000000
    8       11.258055  -0.000000
    9       12.757007   0.000000
   10       16.020122   0.000000

  0.2000000E+00  0.1333333E+00  0.1333333E+00  0.7111111E-02
    1       -3.601910   1.000000
    2        2.349623   1.000000
    3        3.599812   1.000000
    4        4.429439   1.000000
    5        6.619134   1.000000
    6        7.692262   1.000000
    7       10.935544  -0.000000
    8       11.378248  -0.000000
    9       13.329257   0.000000
   10       15.766237   0.000000

  0.2666667E+00  0.1333333E+00  0.1333333E+00  0.7111111E-02
    1       -2.937093   1.000000
    2        1.437513   1.000000
    3        3.360483   1.000000
    4        4.334332   1.000000
    5        6.196206   1.000000
    6        8.149700   1.000000
    7       10.740360  -0.000000
    8       11.716276  -0.000000
    9       13.679998   0.000000
   10       15.989711   0.000000

  0.3333333E+00  0.1333333E+00  0.1333333E+00  0.7111111E-02
    1       -2.174973   1.000000
    2        0.495997   1.000000
    3        3.188435   1.000000
    4        4.275206   1.000000
    5        5.767170   1.000000
    6        8.720045   1.000000
    7       10.700829  -0.000000
    8       11.838813  -0.000000
    9       13.854154   0.000000
   10       16.362698   0.000000

  0.4000000E+00  0.1333333E+00  0.1333333E+00  0.7111111E-02
    1       -1.337498   1.000000
    2       -0.433952   1.000000
    3        3.097408   1.000000
    4        4.256825   1.000000
    5        5.517390   1.000000
    6        9.036505   1.000000
    7       10.902070  -0.000000
    8       11.712935  -0.000000
    9       13.952781   0.000000
   10       16.484061   0.000000

  0.2000000E+00  0.2000000E+00  0.1333333E+00  0.3555556E-02
    1       -3.003680   1.000000
    2        1.809612   1.000000
    3        2.954840   1.000000
    4        4.358719   1.000000
    5        6.797736   1.000000
    6        7.444194   1.000000
    7       10.630586  -0.000000
    8       11.857355  -0.000000
    9       14.128616   0.000000
   10       15.693653   0.000000

  0.2666667E+00  0.2000000E+00  0.1333333E+00  0.7111111E-02
    1       -2.295243   1.000000
    2        1.094991   1.000000
    3        2.500835   1.000000
    4        4.354773   1.000000
    5        6.202839   1.000000
    6        8.157455   1.000000
    7       10.325969  -0.000015
    8       12.055443  -0.000000
    9       14.729054   0.000000
   10       16.004494   0.000000
