 running on    4 total cores
 distrk:  each k-point on    4 cores,    1 groups
 distr:  one band on    2 cores,    2 groups
 using from now: INCAR     
 vasp.5.4.4.18Apr17-6-g9f103f2a35 (build Dec  7 2020 12:43:57) complex           
 POSCAR found type information on POSCAR  Mo B 
 POSCAR found :  2 types and       3 ions
 scaLAPACK will be used
 LDA part: xc-table for Pade appr. of Perdew
 POSCAR, INCAR and KPOINTS ok, starting setup
 FFT: planning ...
 WAVECAR not read
 augmentation electrons   12.018373587906812     
 soft         electrons   0.0000000000000000     
 augmentation electrons   12.018373587906812     
 soft         electrons   0.0000000000000000     
 total        electrons   12.018373587906812     
 augmentation electrons   12.018373587906812     
 soft         electrons   0.0000000000000000     
 total        electrons   12.018373587906812     
 augmentation electrons   12.018373587906812     
 soft         electrons   0.0000000000000000     
 total        electrons   12.018373587906812     
 total        electrons   12.018373587906812     
 augmentation electrons   169.75791458332097     
 augmentation electrons   169.75791458332097     
 soft         electrons   0.0000000000000000     
 augmentation electrons   169.75791458332097     
 soft         electrons   0.0000000000000000     
 augmentation electrons   169.75791458332097     
 soft         electrons   0.0000000000000000     
 soft         electrons   0.0000000000000000     
 total        electrons   169.75791458332097     
 total        electrons   169.75791458332097     
 total        electrons   169.75791458332097     
 total        electrons   169.75791458332097     
 entering main loop
       N       E                     dE             d eps       ncg     rms          rms(c)
DAV:   1     0.337596704372E+02    0.33760E+02   -0.57144E+03  4320   0.105E+03
DAV:   2    -0.229494007940E+02   -0.56709E+02   -0.53803E+02  5148   0.219E+02
DAV:   3    -0.251423858168E+02   -0.21930E+01   -0.21014E+01  6018   0.381E+01
DAV:   4    -0.251694647858E+02   -0.27079E-01   -0.26661E-01  5462   0.321E+00
DAV:   5    -0.251698521019E+02   -0.38732E-03   -0.38677E-03  5602   0.292E-01    0.357E+01
RMM:   6    -0.212501980250E+02    0.39197E+01   -0.13612E+01  4336   0.232E+01    0.882E+00
RMM:   7    -0.212600348081E+02   -0.98368E-02   -0.40562E-01  4330   0.411E+00    0.529E+00
RMM:   8    -0.212970189927E+02   -0.36984E-01   -0.35959E-01  4320   0.648E+00    0.245E+00
RMM:   9    -0.212574870306E+02    0.39532E-01   -0.86087E-02  4320   0.216E+00    0.285E-01
RMM:  10    -0.212572488340E+02    0.23820E-03   -0.41884E-03  4383   0.431E-01    0.268E-01
RMM:  11    -0.212563989491E+02    0.84988E-03   -0.12331E-03  4320   0.249E-01    0.509E-02
RMM:  12    -0.212564038767E+02   -0.49276E-05   -0.58338E-05  4336   0.462E-02    0.143E-02
RMM:  13    -0.212564069998E+02   -0.31231E-05   -0.25930E-05  4338   0.407E-02    0.967E-03
RMM:  14    -0.212564054659E+02    0.15339E-05   -0.32516E-06  3550   0.144E-02    0.145E-03
RMM:  15    -0.212564054958E+02   -0.29954E-07   -0.10990E-07  2600   0.336E-03
   1 F= -.21256405E+02 E0= -.21256182E+02  d E =-.212564E+02
 curvature:   0.00 expect dE= 0.000E+00 dE for cont linesearch  0.000E+00
 trial: gam= 0.00000 g(F)=  0.947E-43 g(S)=  0.528E-01 ort = 0.000E+00 (trialstep = 0.100E+01)
 search vector abs. value=  0.528E-01
 bond charge predicted
       N       E                     dE             d eps       ncg     rms          rms(c)
DAV:   1    -0.212975486655E+02   -0.41143E-01   -0.16927E+00  4406   0.110E+01    0.591E-01
RMM:   2    -0.212908039893E+02    0.67447E-02   -0.35309E-02  4326   0.172E+00    0.752E-01
RMM:   3    -0.212901271328E+02    0.67686E-03   -0.11593E-03  4340   0.228E-01    0.466E-01
RMM:   4    -0.212899905666E+02    0.13657E-03   -0.81370E-04  4320   0.258E-01    0.531E-02
RMM:   5    -0.212900570024E+02   -0.66436E-04   -0.25763E-04  4321   0.143E-01    0.696E-02
RMM:   6    -0.212900439108E+02    0.13092E-04   -0.41333E-05  4318   0.533E-02    0.184E-02
RMM:   7    -0.212900504842E+02   -0.65734E-05   -0.97662E-06  4132   0.378E-02    0.117E-02
RMM:   8    -0.212900498701E+02    0.61415E-06   -0.21608E-06  3211   0.124E-02
   2 F= -.21290050E+02 E0= -.21290020E+02  d E =-.336444E-01
 trial-energy change:   -0.033644  1 .order   -0.035442   -0.052823   -0.018060
 step:   1.5195(harm=  1.5195)  dis= 0.00000  next Energy=   -21.296539 (dE=-0.401E-01)
 bond charge predicted
       N       E                     dE             d eps       ncg     rms          rms(c)
DAV:   1    -0.212986364030E+02   -0.85859E-02   -0.46218E-01  4398   0.569E+00    0.280E-01
RMM:   2    -0.212978048099E+02    0.83159E-03   -0.74253E-03  4324   0.835E-01    0.349E-01
RMM:   3    -0.212978278827E+02   -0.23073E-04   -0.25087E-04  4341   0.124E-01    0.217E-01
RMM:   4    -0.212980235962E+02   -0.19571E-03   -0.21222E-04  4320   0.177E-01    0.452E-02
RMM:   5    -0.212980957764E+02   -0.72180E-04   -0.13040E-04  4320   0.125E-01    0.436E-02
RMM:   6    -0.212980948423E+02    0.93410E-06   -0.22428E-05  4316   0.423E-02    0.102E-02
RMM:   7    -0.212980977857E+02   -0.29434E-05   -0.48562E-06  3486   0.306E-02    0.618E-03
RMM:   8    -0.212980975562E+02    0.22952E-06   -0.62556E-07  2583   0.630E-03
   3 F= -.21298098E+02 E0= -.21298012E+02  d E =-.416921E-01
 curvature:  -0.76 expect dE=-0.272E-02 dE for cont linesearch -0.272E-02
 ZBRENT: increasing intervall
 opt :   2.5586  next Energy=   -21.307904 (dE=-0.515E-01)
 bond charge predicted
       N       E                     dE             d eps       ncg     rms          rms(c)
DAV:   1    -0.213046731231E+02   -0.65753E-02   -0.18337E+00  4332   0.113E+01    0.616E-01
RMM:   2    -0.213008507269E+02    0.38224E-02   -0.30536E-02  4324   0.167E+00    0.767E-01
RMM:   3    -0.213008756965E+02   -0.24970E-04   -0.10157E-03  4341   0.261E-01    0.471E-01
RMM:   4    -0.213017497501E+02   -0.87405E-03   -0.10007E-03  4320   0.385E-01    0.946E-02
RMM:   5    -0.213020537032E+02   -0.30395E-03   -0.43697E-04  4320   0.236E-01    0.836E-02
RMM:   6    -0.213021080371E+02   -0.54334E-04   -0.13959E-04  4321   0.128E-01    0.248E-02
RMM:   7    -0.213021119265E+02   -0.38895E-05   -0.20870E-05  4312   0.582E-02    0.998E-03
RMM:   8    -0.213021119150E+02    0.11494E-07   -0.21578E-06  3099   0.109E-02
   4 F= -.21302112E+02 E0= -.21301999E+02  d E =-.457064E-01
 curvature:  -2.74 expect dE=-0.167E-02 dE for cont linesearch -0.167E-02
 ZBRENT: bracketing found
 ZBRENT: interpolating
 opt :   2.2548  next Energy=   -21.302975 (dE=-0.466E-01)
 bond charge predicted
       N       E                     dE             d eps       ncg     rms          rms(c)
DAV:   1    -0.213031421759E+02   -0.10302E-02   -0.15782E-01  4332   0.333E+00    0.179E-01
RMM:   2    -0.213029867732E+02    0.15540E-03   -0.22984E-03  4324   0.478E-01    0.213E-01
RMM:   3    -0.213030385225E+02   -0.51749E-04   -0.88328E-05  4346   0.853E-02    0.131E-01
RMM:   4    -0.213031650713E+02   -0.12655E-03   -0.91257E-05  4320   0.129E-01    0.346E-02
RMM:   5    -0.213032079480E+02   -0.42877E-04   -0.64936E-05  4320   0.959E-02    0.243E-02
RMM:   6    -0.213032105240E+02   -0.25760E-05   -0.11336E-05  4255   0.347E-02    0.701E-03
RMM:   7    -0.213032109686E+02   -0.44460E-06   -0.18482E-06  2938   0.182E-02
   5 F= -.21303211E+02 E0= -.21303045E+02  d E =-.468055E-01
 curvature:  -1.41 expect dE=-0.102E-03 dE for cont linesearch -0.102E-03
 trial: gam= 0.00000 g(F)=  0.268E-45 g(S)=  0.719E-04 ort =-0.195E-02 (trialstep = 0.125E+01)
 search vector abs. value=  0.719E-04
 reached required accuracy - stopping structural energy minimisation
 writing wavefunctions
 augmentation electrons   1.1830360040896548     
 soft         electrons   10.839476907133362     
 augmentation electrons   1.1830360040896548     
 soft         electrons   10.839476907133362     
 augmentation electrons   1.1830360040896548     
 soft         electrons   10.839476907133362     
 augmentation electrons   1.1830360040896548     
 soft         electrons   10.839476907133362     
 total        electrons   12.022512911223016     
 total        electrons   12.022512911223016     
 total        electrons   12.022512911223016     
 total        electrons   12.022512911223016     
