   23   23    1    1
  0.8580923E+01  0.6077656E-09  0.6077611E-09  0.6175024E-09  0.5000000E-15
   1.0000000000000000E-004
  CAR 
 Name                                    
     87    666     56

  0.3742002E-15  0.3742002E-15  0.3742002E-15  0.7513148E-03
    1       -6.118653   1.000000
    2       -3.830882   1.000000
    3       -3.054501   1.000000
    4       -2.529772   1.000000
    5       -2.258095   1.000000
    6       -2.238691   1.000000
    7       -2.197257   1.000000
    8       -1.900834   1.000000
    9       -1.879800   1.000000
   10       -1.710523   1.000000
   11       -1.604312   1.000000
   12       -0.258799   1.000000
   13        0.022390   1.000000
   14        0.269564   1.000000
   15        0.354424   1.000000
   16        1.969972   1.000000
   17        2.283814   1.000000
   18        2.450870   1.000000
   19        2.769567   1.000000
   20        2.890681   1.000000
   21        3.181328   1.000000
   22        3.354192   1.000000
   23        3.377678   1.000000
   24        3.862883   1.000000
   25        4.142474   1.000000
   26        4.162813   1.000000
   27        4.178120   1.000000
   28        4.233196   1.000000
   29        4.266940   1.000000
   30        4.337616   1.000000
   31        4.592342   1.000000
   32        4.619057   1.000000
   33        4.628197   1.000000
   34        4.806521   1.000000
   35        4.911432   1.000000
   36        5.925944   1.000000
   37        5.980331   1.000000
   38        6.535736   1.000000
   39        6.654356   1.000000
   40        6.919305   1.000000
   41        7.049950   1.000000
   42        7.261282   1.000000
   43        7.564855   1.000000
   44        7.944367   1.000000
   45        8.156678   1.000000
   46        8.270705   0.000000
   47        9.039688   0.000000
   48        9.277328   0.000000
   49        9.338062   0.000000
   50        9.452593   0.000000
   51        9.950311   0.000000
   52       10.994602   0.000000
   53       11.599438   0.000000
   54       11.956344   0.000000
   55       12.594813   0.000000
   56       13.241797   0.000000

  0.9090909E-01  0.3761816E-15  0.3742001E-15  0.1502630E-02
    1       -6.079159   1.000000
    2       -3.818314   1.000000
    3       -3.054878   1.000000
    4       -2.658319   1.000000
    5       -2.523678   1.000000
    6       -2.355541   1.000000
    7       -2.249605   1.000000
    8       -2.160310   1.000000
    9       -1.601004   1.000000
   10       -1.476856   1.000000
   11       -1.210503   1.000000
   12       -0.203265   1.000000
   13        0.060413   1.000000
   14        0.268075   1.000000
   15        0.403486   1.000000
   16        1.988847   1.000000
   17        2.288274   1.000000
   18        2.457488   1.000000
   19        2.786491   1.000000
   20        2.895985   1.000000
   21        3.062151   1.000000
   22        3.271588   1.000000
   23        3.388589   1.000000
   24        3.619217   1.000000
   25        4.006243   1.000000
   26        4.172074   1.000000
   27        4.202981   1.000000
   28        4.246621   1.000000
   29        4.252261   1.000000
   30        4.376531   1.000000
   31        4.504896   1.000000
   32        4.576875   1.000000
   33        4.682054   1.000000
   34        4.889278   1.000000
   35        5.148486   1.000000
   36        5.857434   1.000000
   37        6.028681   1.000000
   38        6.089963   1.000000
   39        6.196870   1.000000
   40        7.216918   1.000000
   41        7.371958   1.000000
   42        7.498502   1.000000
   43        7.576963   1.000000
   44        7.846041   1.000000
   45        8.192929   1.008864
   46        8.269250   0.000000
   47        9.046771   0.000000
   48        9.253570   0.000000
   49        9.308985   0.000000
   50        9.409298   0.000000
   51        9.528189   0.000000
   52        9.892770   0.000000
   53       11.102289   0.000000
   54       11.757261   0.000000
   55       11.984799   0.000000
   56       12.714320   0.000000

  0.1818182E+00  0.3839497E-15  0.3742001E-15  0.1502630E-02
    1       -5.961510   1.000000
    2       -3.780231   1.000000
    3       -3.222866   1.000000
    4       -3.064904   1.000000
    5       -2.540812   1.000000
    6       -2.522128   1.000000
    7       -2.405438   1.000000
    8       -2.352188   1.000000
    9       -1.201029   1.000000
   10       -1.132374   1.000000
   11       -0.578863   1.000000
   12       -0.036564   1.000000
   13        0.056013   1.000000
   14        0.248697   1.000000
   15        0.658782   1.000000
   16        2.039291   1.000000
   17        2.298782   1.000000
   18        2.442133   1.000000
   19        2.696811   1.000000
   20        2.842077   1.000000
   21        2.898039   1.000000
   22        2.959181   1.000000
   23        3.279610   1.000000
   24        3.490162   1.000000
   25        3.759602   1.000000
   26        4.168855   1.000000
   27        4.187178   1.000000
   28        4.245474   1.000000
   29        4.264558   1.000000
   30        4.321243   1.000000
   31        4.521383   1.000000
   32        4.534988   1.000000
   33        4.675618   1.000000
   34        5.028018   1.000000
   35        5.360851   1.000000
   36        5.616003   1.000000
   37        5.653974   1.000000
   38        5.705162   1.000000
   39        6.279985   1.000000
   40        7.061109   1.000000
   41        7.566595   1.000000
   42        7.647123   1.000000
   43        7.791115   1.000000
   44        8.087562   1.035576
   45        8.256437   0.340272
   46        8.414404   0.000000
   47        9.067899   0.000000
   48        9.151446   0.000000
   49        9.203577   0.000000
   50        9.292974   0.000000
   51        9.666922   0.000000
   52        9.904129   0.000000
   53       10.081243   0.000000
   54       10.553404   0.000000
   55       11.425105   0.000000
   56       12.487181   0.000000

  0.2727273E+00  0.3894639E-15  0.3741998E-15  0.1502630E-02
    1       -5.768353   1.000000
    2       -3.769607   1.000000
    3       -3.715934   1.000000
    4       -3.110264   1.000000
    5       -2.699481   1.000000
    6       -2.584815   1.000000
    7       -2.574575   1.000000
    8       -2.385032   1.000000
    9       -0.769873   1.000000
   10       -0.722826   1.000000
   11       -0.010097   1.000000
   12        0.052051   1.000000
   13        0.211933   1.000000
   14        0.259299   1.000000
   15        1.101513   1.000000
   16        2.104807   1.000000
   17        2.194338   1.000000
   18        2.310228   1.000000
   19        2.317974   1.000000
   20        2.396185   1.000000
   21        2.911407   1.000000
   22        2.948650   1.000000
   23        3.183344   1.000000
   24        3.336190   1.000000
   25        3.651103   1.000000
   26        4.104999   1.000000
   27        4.146295   1.000000
   28        4.212544   1.000000
   29        4.282239   1.000000
   30        4.334050   1.000000
   31        4.356743   1.000000
   32        4.598752   1.000000
   33        4.739105   1.000000
   34        4.785802   1.000000
   35        5.161134   1.000000
   36        5.252592   1.000000
   37        5.391121   1.000000
   38        6.100821   1.000000
   39        6.508196   1.000000
   40        6.914230   1.000000
   41        7.207973   1.000000
   42        7.757702   1.000000
   43        7.913139   1.000000
   44        8.218911   0.976593
   45        8.706038   0.000000
   46        8.818878   0.000000
   47        8.883038   0.000000
   48        8.940939   0.000000
   49        9.095781   0.000000
   50        9.125469   0.000000
   51        9.479306   0.000000
   52        9.628754   0.000000
   53        9.929042   0.000000
   54        9.953128   0.000000
   55       10.086538   0.000000
   56       11.425934   0.000000

  0.3636364E+00  0.3539381E-15  0.3741999E-15  0.1502630E-02
    1       -5.505268   1.000000
    2       -4.273163   1.000000
    3       -3.626284   1.000000
    4       -3.209601   1.000000
    5       -2.809778   1.000000
    6       -2.703320   1.000000
    7       -2.627288   1.000000
    8       -2.362992   1.000000
    9       -0.329439   1.000000
   10       -0.295998   1.000000
   11       -0.081451   1.000000
   12        0.174889   1.000000
   13        0.518004   1.000000
   14        0.803139   1.000000
   15        1.631584   1.000000
   16        1.736645   1.000000
   17        1.806671   1.000000
   18        1.980592   1.000000
   19        2.168257   1.000000
   20        2.328737   1.000000
   21        2.714848   1.000000
   22        3.015854   1.000000
   23        3.114721   1.000000
   24        3.236358   1.000000
   25        3.695456   1.000000
   26        3.922442   1.000000
   27        4.003504   1.000000
   28        4.078753   1.000000
   29        4.138098   1.000000
   30        4.288036   1.000000
   31        4.426828   1.000000
   32        4.518589   1.000000
   33        4.651685   1.000000
   34        4.881286   1.000000
   35        4.946590   1.000000
   36        5.210978   1.000000
   37        5.267115   1.000000
   38        6.370071   1.000000
   39        6.555358   1.000000
   40        6.876850   1.000000
   41        7.122362   1.000000
   42        7.867221   1.000000
   43        7.885144   1.000000
   44        8.226838   0.919931
   45        8.516860  -0.012679
   46        8.554840  -0.000284
   47        9.014847   0.000000
   48        9.137345   0.000000
   49        9.149190   0.000000
   50        9.280666   0.000000
   51        9.368570   0.000000
   52        9.692689   0.000000
   53        9.777168   0.000000
   54       10.190425   0.000000
   55       10.192980   0.000000
   56       11.305981   0.000000

  0.4545455E+00  0.3879158E-15  0.3741997E-15  0.1502630E-02
    1       -5.194425   1.000000
    2       -4.705331   1.000000
    3       -3.522975   1.000000
    4       -3.331375   1.000000
    5       -2.865812   1.000000
    6       -2.762402   1.000000
    7       -2.644874   1.000000
    8       -2.343470   1.000000
    9       -0.125465   1.000000
   10        0.029270   1.000000
   11        0.047036   1.000000
   12        0.151905   1.000000
   13        0.918611   1.000000
   14        1.301743   1.000000
   15        1.363512   1.000000
   16        1.474756   1.000000
   17        1.593639   1.000000
   18        2.050424   1.000000
   19        2.162388   1.000000
   20        2.229059   1.000000
   21        2.475115   1.000000
   22        3.041026   1.000000
   23        3.093846   1.000000
   24        3.277073   1.000000
   25        3.321212   1.000000
   26        3.813830   1.000000
   27        3.942869   1.000000
   28        4.070110   1.000000
   29        4.114135   1.000000
   30        4.294008   1.000000
   31        4.482210   1.000000
   32        4.493928   1.000000
   33        4.644357   1.000000
   34        4.678751   1.000000
   35        5.029721   1.000000
   36        5.202586   1.000000
   37        5.305856   1.000000
   38        6.211439   1.000000
   39        6.669619   1.000000
   40        6.845711   1.000000
   41        7.415628   1.000000
   42        7.842603   1.000000
   43        7.980847   1.000000
   44        8.185111   1.012147
   45        8.213988   0.583126
   46        8.230639   0.053128
   47        8.963419   0.000000
   48        9.154848   0.000000
   49        9.344853   0.000000
   50        9.381586   0.000000
   51        9.457572   0.000000
   52        9.556758   0.000000
   53        9.660888   0.000000
   54       10.198337   0.000000
   55       10.344054   0.000000
   56       10.778704   0.000000

  0.3741711E-15  0.9090909E-01  0.3742002E-15  0.1502630E-02
    1       -6.079158   1.000000
    2       -3.818313   1.000000
    3       -3.054877   1.000000
    4       -2.658376   1.000000
    5       -2.523662   1.000000
    6       -2.355466   1.000000
    7       -2.249634   1.000000
    8       -2.160284   1.000000
    9       -1.601007   1.000000
   10       -1.476990   1.000000
   11       -1.210405   1.000000
   12       -0.203266   1.000000
   13        0.060469   1.000000
   14        0.268069   1.000000
   15        0.403457   1.000000
   16        1.988844   1.000000
   17        2.288273   1.000000
   18        2.457482   1.000000
   19        2.786483   1.000000
   20        2.895979   1.000000
   21        3.062143   1.000000
   22        3.271613   1.000000
   23        3.388590   1.000000
   24        3.619175   1.000000
   25        4.006178   1.000000
   26        4.172083   1.000000
   27        4.203036   1.000000
   28        4.246557   1.000000
   29        4.252304   1.000000
   30        4.376630   1.000000
   31        4.504983   1.000000
   32        4.576859   1.000000
   33        4.681956   1.000000
   34        4.889270   1.000000
   35        5.148474   1.000000
   36        5.857457   1.000000
   37        6.028688   1.000000
   38        6.090035   1.000000
   39        6.196739   1.000000
   40        7.216915   1.000000
   41        7.371970   1.000000
   42        7.498535   1.000000
   43        7.576956   1.000000
   44        7.846053   1.000000
   45        8.192899   1.008851
   46        8.269277   0.000000
   47        9.046966   0.000000
   48        9.249248   0.000000
   49        9.320366   0.000000
   50        9.481534   0.000000
   51        9.761368   0.000000
   52       11.100258   0.000000
   53       11.757602   0.000000
   54       11.955296   0.000000
   55       12.648446   0.000000
   56       13.385060   0.000000

  0.9090909E-01  0.9090909E-01  0.3742000E-15  0.1502630E-02
    1       -5.999784   1.000000
    2       -3.789816   1.000000
    3       -3.048856   1.000000
    4       -2.992818   1.000000
    5       -2.772240   1.000000
    6       -2.454154   1.000000
    7       -2.413604   1.000000
    8       -1.946322   1.000000
    9       -1.720493   1.000000
   10       -0.903481   1.000000
   11       -0.867865   1.000000
   12       -0.089393   1.000000
   13       -0.001014   1.000000
   14        0.352868   1.000000
   15        0.558594   1.000000
   16        1.989164   1.000000
   17        2.266893   1.000000
   18        2.432920   1.000000
   19        2.679862   1.000000
   20        2.872966   1.000000
   21        3.036381   1.000000
   22        3.119828   1.000000
   23        3.456090   1.000000
   24        3.473402   1.000000
   25        3.832928   1.000000
   26        3.959296   1.000000
   27        4.214218   1.000000
   28        4.218353   1.000000
   29        4.308281   1.000000
   30        4.390897   1.000000
   31        4.510221   1.000000
   32        4.602533   1.000000
   33        4.640374   1.000000
   34        5.154051   1.000000
   35        5.221025   1.000000
   36        5.599826   1.000000
   37        5.629361   1.000000
   38        5.842315   1.000000
   39        6.254762   1.000000
   40        7.091932   1.000000
   41        7.636451   1.000000
   42        7.646914   1.000000
   43        7.741015   1.000000
   44        7.910367   1.000000
   45        8.201478   0.754544
   46        8.403389   0.000000
   47        9.062283   0.000000
   48        9.217368   0.000000
   49        9.263862   0.000000
   50        9.318613   0.000000
   51        9.602100   0.000000
   52        9.753712   0.000000
   53       10.473301   0.000000
   54       11.240299   0.000000
   55       11.861160   0.000000
   56       12.907713   0.000000

  0.1818182E+00  0.9090909E-01  0.3741998E-15  0.1502630E-02
    1       -5.843689   1.000000
    2       -3.737091   1.000000
    3       -3.494907   1.000000
    4       -3.055412   1.000000
    5       -3.041772   1.000000
    6       -2.603026   1.000000
    7       -2.368575   1.000000
    8       -2.037891   1.000000
    9       -1.394526   1.000000
   10       -0.503179   1.000000
   11       -0.234338   1.000000
   12       -0.148843   1.000000
   13        0.135809   1.000000
   14        0.417629   1.000000
   15        0.939485   1.000000
   16        2.020281   1.000000
   17        2.148810   1.000000
   18        2.257167   1.000000
   19        2.435532   1.000000
   20        2.824941   1.000000
   21        2.981892   1.000000
   22        3.029578   1.000000
   23        3.198577   1.000000
   24        3.541349   1.000000
   25        3.619107   1.000000
   26        3.824470   1.000000
   27        4.192329   1.000000
   28        4.199227   1.000000
   29        4.209814   1.000000
   30        4.408786   1.000000
   31        4.438359   1.000000
   32        4.636725   1.000000
   33        4.746344   1.000000
   34        5.046667   1.000000
   35        5.248079   1.000000
   36        5.289035   1.000000
   37        5.442660   1.000000
   38        5.653217   1.000000
   39        6.562943   1.000000
   40        6.913535   1.000000
   41        7.327130   1.000000
   42        7.742347   1.000000
   43        8.002046   1.000000
   44        8.184412   0.955344
   45        8.328533  -0.017098
   46        8.818685   0.000000
   47        9.049140   0.000000
   48        9.074721   0.000000
   49        9.092514   0.000000
   50        9.162211   0.000000
   51        9.510705   0.000000
   52        9.844009   0.000000
   53        9.958395   0.000000
   54       10.227291   0.000000
   55       10.258876   0.000000
   56       11.550319   0.000000

  0.2727273E+00  0.9090909E-01  0.3742000E-15  0.1502630E-02
    1       -5.614671   1.000000
    2       -4.012346   1.000000
    3       -3.660726   1.000000
    4       -3.202839   1.000000
    5       -3.114930   1.000000
    6       -2.735782   1.000000
    7       -2.282854   1.000000
    8       -2.169660   1.000000
    9       -0.938650   1.000000
   10       -0.297674   1.000000
   11       -0.097496   1.000000
   12        0.345032   1.000000
   13        0.451658   1.000000
   14        0.531617   1.000000
   15        1.451358   1.000000
   16        1.619874   1.000000
   17        2.067862   1.000000
   18        2.176268   1.000000
   19        2.261347   1.000000
   20        2.446497   1.000000
   21        2.742862   1.000000
   22        3.069841   1.000000
   23        3.110200   1.000000
   24        3.340476   1.000000
   25        3.775469   1.000000
   26        3.860313   1.000000
   27        3.973956   1.000000
   28        4.065138   1.000000
   29        4.184294   1.000000
   30        4.218545   1.000000
   31        4.436570   1.000000
   32        4.647384   1.000000
   33        4.753964   1.000000
   34        4.862317   1.000000
   35        5.059308   1.000000
   36        5.108004   1.000000
   37        5.305572   1.000000
   38        6.092052   1.000000
   39        6.610357   1.000000
   40        6.987800   1.000000
   41        7.006673   1.000000
   42        7.858001   1.000000
   43        7.953033   1.000000
   44        8.242654   0.482595
   45        8.699652   0.000000
   46        8.759960   0.000000
   47        8.763937   0.000000
   48        9.046341   0.000000
   49        9.145427   0.000000
   50        9.334825   0.000000
   51        9.361388   0.000000
   52        9.555171   0.000000
   53        9.823557   0.000000
   54        9.983856   0.000000
   55       10.098912   0.000000
   56       11.322153   0.000000

  0.3636364E+00  0.9090909E-01  0.3742001E-15  0.1502630E-02
    1       -5.321971   1.000000
    2       -4.483579   1.000000
    3       -3.565222   1.000000
    4       -3.296075   1.000000
    5       -3.243641   1.000000
    6       -2.774330   1.000000
    7       -2.253758   1.000000
    8       -2.218129   1.000000
    9       -0.482952   1.000000
   10       -0.399808   1.000000
   11        0.273827   1.000000
   12        0.466584   1.000000
   13        0.764023   1.000000
   14        1.104133   1.000000
   15        1.152218   1.000000
   16        1.739895   1.000000
   17        2.009734   1.000000
   18        2.018430   1.000000
   19        2.119821   1.000000
   20        2.294646   1.000000
   21        2.429933   1.000000
   22        2.803354   1.000000
   23        3.171087   1.000000
   24        3.441320   1.000000
   25        3.460329   1.000000
   26        3.829363   1.000000
   27        3.908625   1.000000
   28        4.035166   1.000000
   29        4.090209   1.000000
   30        4.151915   1.000000
   31        4.415853   1.000000
   32        4.497673   1.000000
   33        4.716955   1.000000
   34        4.865578   1.000000
   35        5.012561   1.000000
   36        5.142764   1.000000
   37        5.326135   1.000000
   38        6.264972   1.000000
   39        6.596515   1.000000
   40        6.708933   1.000000
   41        7.371177   1.000000
   42        7.867793   1.000000
   43        7.974832   1.000000
   44        8.267674   0.470248
   45        8.376944  -0.047293
   46        8.389593  -0.000220
   47        8.955121   0.000000
   48        9.111316   0.000000
   49        9.144610   0.000000
   50        9.280382   0.000000
   51        9.463525   0.000000
   52        9.534653   0.000000
   53        9.615074   0.000000
   54        9.713122   0.000000
   55       10.278036   0.000000
   56       10.369399   0.000000

  0.4545455E+00  0.9090909E-01  0.3741992E-15  0.1502630E-02
    1       -5.068299   1.000000
    2       -4.797369   1.000000
    3       -3.491806   1.000000
    4       -3.351206   1.000000
    5       -3.325827   1.000000
    6       -2.765359   1.000000
    7       -2.284399   1.000000
    8       -2.192887   1.000000
    9       -0.424873   1.000000
   10       -0.223584   1.000000
   11        0.445943   1.000000
   12        0.469957   1.000000
   13        0.831620   1.000000
   14        1.071885   1.000000
   15        1.402214   1.000000
   16        1.699396   1.000000
   17        1.760089   1.000000
   18        1.980812   1.000000
   19        2.061349   1.000000
   20        2.290236   1.000000
   21        2.608902   1.000000
   22        2.804974   1.000000
   23        2.812198   1.000000
   24        3.386189   1.000000
   25        3.434242   1.000000
   26        3.728692   1.000000
   27        3.841736   1.000000
   28        4.052590   1.000000
   29        4.138355   1.000000
   30        4.175803   1.000000
   31        4.402431   1.000000
   32        4.469657   1.000000
   33        4.559227   1.000000
   34        4.878697   1.000000
   35        5.133091   1.000000
   36        5.235857   1.000000
   37        5.335731   1.000000
   38        6.170538   1.000000
   39        6.585181   1.000000
   40        6.763056   1.000000
   41        7.626059   1.000000
   42        7.815134   1.000000
   43        8.054953   1.000000
   44        8.140974   1.098852
   45        8.194071   0.626375
   46        8.277377   0.009943
   47        8.912319   0.000000
   48        9.151441   0.000000
   49        9.267411   0.000000
   50        9.270958   0.000000
   51        9.376542   0.000000
   52        9.441425   0.000000
   53        9.551269   0.000000
   54        9.880966   0.000000
   55       10.099571   0.000000
   56       10.645175   0.000000

 -0.4545455E+00  0.9090909E-01  0.3742007E-15  0.1502630E-02
    1       -5.327404   1.000000
    2       -4.478221   1.000000
    3       -3.572670   1.000000
    4       -3.293229   1.000000
    5       -3.279592   1.000000
    6       -2.740760   1.000000
    7       -2.260626   1.000000
    8       -2.205201   1.000000
    9       -0.465092   1.000000
   10       -0.368092   1.000000
   11        0.250267   1.000000
   12        0.465547   1.000000
   13        0.745236   1.000000
   14        0.987022   1.000000
   15        1.309868   1.000000
   16        1.743898   1.000000
   17        1.792692   1.000000
   18        1.973803   1.000000
   19        2.284389   1.000000
   20        2.382352   1.000000
   21        2.444755   1.000000
   22        2.817490   1.000000
   23        3.121924   1.000000
   24        3.309686   1.000000
   25        3.416692   1.000000
   26        3.902565   1.000000
   27        3.905122   1.000000
   28        3.976669   1.000000
   29        4.055243   1.000000
   30        4.149937   1.000000
   31        4.417426   1.000000
   32        4.445305   1.000000
   33        4.791146   1.000000
   34        4.821504   1.000000
   35        5.078792   1.000000
   36        5.279550   1.000000
   37        5.372004   1.000000
   38        6.228018   1.000000
   39        6.688881   1.000000
   40        6.710856   1.000000
   41        7.354705   1.000000
   42        7.816071   1.000000
   43        7.970695   1.000000
   44        8.277373   0.346669
   45        8.361987  -0.034762
   46        8.415971  -0.000389
   47        8.925041   0.000000
   48        9.154641   0.000000
   49        9.157235   0.000000
   50        9.330764   0.000000
   51        9.435789   0.000000
   52        9.482991   0.000000
   53        9.615387   0.000000
   54        9.682202   0.000000
   55       10.095965   0.000000
   56       10.468438   0.000000

 -0.3636364E+00  0.9090909E-01  0.3742006E-15  0.1502630E-02
    1       -5.619699   1.000000
    2       -4.007641   1.000000
    3       -3.675159   1.000000
    4       -3.197216   1.000000
    5       -3.173097   1.000000
    6       -2.704157   1.000000
    7       -2.227961   1.000000
    8       -2.183600   1.000000
    9       -0.912046   1.000000
   10       -0.251469   1.000000
   11       -0.131786   1.000000
   12        0.324025   1.000000
   13        0.448895   1.000000
   14        0.516349   1.000000
   15        1.294690   1.000000
   16        1.721510   1.000000
   17        2.166947   1.000000
   18        2.220753   1.000000
   19        2.364454   1.000000
   20        2.372874   1.000000
   21        2.751552   1.000000
   22        2.908784   1.000000
   23        3.050115   1.000000
   24        3.212828   1.000000
   25        3.705881   1.000000
   26        3.880919   1.000000
   27        4.056855   1.000000
   28        4.087192   1.000000
   29        4.103464   1.000000
   30        4.192479   1.000000
   31        4.454609   1.000000
   32        4.608008   1.000000
   33        4.645683   1.000000
   34        4.953311   1.000000
   35        5.084121   1.000000
   36        5.332834   1.000000
   37        5.366047   1.000000
   38        6.323354   1.000000
   39        6.552136   1.000000
   40        6.977244   1.000000
   41        6.980333   1.000000
   42        7.835297   1.000000
   43        7.856445   1.000000
   44        8.261569   0.181470
   45        8.740668   0.000000
   46        8.751521   0.000000
   47        8.822559   0.000000
   48        9.025990   0.000000
   49        9.145201   0.000000
   50        9.276027   0.000000
   51        9.410523   0.000000
   52        9.716024   0.000000
   53        9.866314   0.000000
   54       10.048633   0.000000
   55       10.099506   0.000000
   56       11.196509   0.000000

 -0.2727273E+00  0.9090909E-01  0.3742009E-15  0.1502630E-02
    1       -5.847694   1.000000
    2       -3.752199   1.000000
    3       -3.492269   1.000000
    4       -3.101500   1.000000
    5       -3.033333   1.000000
    6       -2.656855   1.000000
    7       -2.224907   1.000000
    8       -2.061338   1.000000
    9       -1.357949   1.000000
   10       -0.548092   1.000000
   11       -0.233983   1.000000
   12       -0.107442   1.000000
   13        0.122660   1.000000
   14        0.396494   1.000000
   15        0.840904   1.000000
   16        2.157060   1.000000
   17        2.318939   1.000000
   18        2.374491   1.000000
   19        2.458704   1.000000
   20        2.727776   1.000000
   21        2.762334   1.000000
   22        2.787211   1.000000
   23        3.216255   1.000000
   24        3.506900   1.000000
   25        3.538909   1.000000
   26        3.838909   1.000000
   27        4.121961   1.000000
   28        4.172579   1.000000
   29        4.250762   1.000000
   30        4.466627   1.000000
   31        4.472084   1.000000
   32        4.534621   1.000000
   33        4.820933   1.000000
   34        5.033658   1.000000
   35        5.249298   1.000000
   36        5.311791   1.000000
   37        5.622608   1.000000
   38        5.992085   1.000000
   39        6.427890   1.000000
   40        6.956475   1.000000
   41        7.350732   1.000000
   42        7.684071   1.000000
   43        7.892318   1.000000
   44        8.199502   0.882424
   45        8.378157  -0.011365
   46        8.778729   0.000000
   47        9.028838   0.000000
   48        9.051686   0.000000
   49        9.096526   0.000000
   50        9.194947   0.000000
   51        9.504646   0.000000
   52        9.760887   0.000000
   53       10.031119   0.000000
   54       10.144511   0.000000
   55       10.305711   0.000000
   56       11.465236   0.000000

 -0.1818182E+00  0.9090909E-01  0.3742006E-15  0.1502630E-02
    1       -6.002365   1.000000
    2       -3.800836   1.000000
    3       -3.070467   1.000000
    4       -2.991899   1.000000
    5       -2.765697   1.000000
    6       -2.613511   1.000000
    7       -2.187872   1.000000
    8       -1.975330   1.000000
    9       -1.672201   1.000000
   10       -0.994269   1.000000
   11       -0.814887   1.000000
   12       -0.099481   1.000000
   13        0.032575   1.000000
   14        0.255858   1.000000
   15        0.567551   1.000000
   16        2.084814   1.000000
   17        2.355219   1.000000
   18        2.510976   1.000000
   19        2.708310   1.000000
   20        2.785125   1.000000
   21        2.911050   1.000000
   22        3.066096   1.000000
   23        3.365432   1.000000
   24        3.421789   1.000000
   25        3.670314   1.000000
   26        4.017708   1.000000
   27        4.126253   1.000000
   28        4.231134   1.000000
   29        4.291751   1.000000
   30        4.368572   1.000000
   31        4.577304   1.000000
   32        4.604719   1.000000
   33        4.709853   1.000000